/*--------------------------------*- C++ -*----------------------------------*\
  =========                 |
  \\      /  F ield         | OpenFOAM: The Open Source CFD Toolbox
   \\    /   O peration     | Website:  https://openfoam.org
    \\  /    A nd           | Version:  dev
     \\/     M anipulation  |
\*---------------------------------------------------------------------------*/
FoamFile
{
    format      ascii;
    class       volScalarField;
    location    "60";
    object      h;
}
// * * * * * * * * * * * * * * * * * * * * * * * * * * * * * * * * * * * * * //

dimensions      [0 1 0 0 0 0 0];

internalField   nonuniform List<scalar> 
10000
(
-0.00123536
-0.00352817
-0.00567903
-0.00756988
-0.00889117
-0.00951007
-0.00912781
-0.00783433
-0.00571035
-0.00354114
-0.00251441
-0.00283861
-0.00464815
-0.00715049
-0.00928041
-0.010356
-0.0101651
-0.00967899
-0.010269
-0.0125344
-0.0147357
-0.015364
-0.0130002
-0.00815209
-0.00380366
-0.00205055
-0.00368287
-0.0060501
-0.00655923
-0.00417757
-0.000928105
0.00119656
0.00171981
0.00133294
0.0015293
0.00249914
0.00406154
0.00523302
0.0060439
0.0061405
0.00610019
0.00647012
0.00778162
0.00876108
0.00840901
0.00762834
0.00831705
0.00970442
0.0096004
0.00832844
0.00832845
0.00960041
0.00970442
0.00831704
0.00762834
0.00840904
0.00876111
0.00778162
0.00647011
0.00610022
0.00614053
0.00604391
0.00523301
0.00406154
0.00249914
0.00152928
0.0013329
0.00171979
0.00119654
-0.000928154
-0.00417769
-0.00655941
-0.00605024
-0.00368294
-0.00205054
-0.00380371
-0.00815225
-0.0130005
-0.0153642
-0.0147358
-0.0125344
-0.0102689
-0.009679
-0.0101652
-0.0103561
-0.00928056
-0.00715058
-0.00464819
-0.0028386
-0.00251436
-0.00354111
-0.00571041
-0.00783446
-0.00912794
-0.00951016
-0.00889121
-0.00756991
-0.00567902
-0.00352817
-0.00123538
-0.00352817
-0.0106084
-0.0172527
-0.022667
-0.0265975
-0.0280272
-0.0261893
-0.0220496
-0.0158836
-0.00986412
-0.0067666
-0.00713401
-0.0121198
-0.0195513
-0.0259018
-0.0291968
-0.0289665
-0.0277773
-0.0291626
-0.0349586
-0.0410849
-0.0428381
-0.0355531
-0.0210131
-0.00808249
-0.00301387
-0.00778516
-0.0148043
-0.0165587
-0.0100684
-0.00107815
0.00478601
0.00605152
0.00471967
0.00502019
0.00754378
0.0118701
0.0151968
0.017458
0.0176167
0.0175049
0.01866
0.0223733
0.0250646
0.0241285
0.0220825
0.0240263
0.0278311
0.027566
0.0241265
0.0241265
0.027566
0.0278311
0.0240263
0.0220825
0.0241285
0.0250646
0.0223732
0.0186599
0.0175049
0.0176167
0.017458
0.0151967
0.01187
0.00754372
0.0050201
0.00471954
0.00605145
0.00478596
-0.00107825
-0.0100686
-0.016559
-0.0148046
-0.00778522
-0.00301374
-0.00808252
-0.0210135
-0.0355537
-0.0428387
-0.0410853
-0.0349588
-0.0291626
-0.0277775
-0.0289669
-0.0291972
-0.0259022
-0.0195515
-0.0121198
-0.00713392
-0.00676657
-0.00986412
-0.0158838
-0.0220498
-0.0261895
-0.0280275
-0.0265977
-0.0226672
-0.0172528
-0.0106085
-0.00352816
-0.00567903
-0.0172527
-0.0278926
-0.0363847
-0.0425429
-0.0444086
-0.0411862
-0.0340854
-0.0235948
-0.0134354
-0.00761907
-0.00755859
-0.0150605
-0.0264152
-0.0361737
-0.0413371
-0.0408825
-0.039081
-0.0415444
-0.0503955
-0.0600145
-0.0624207
-0.0505135
-0.0275293
-0.00704908
0.00103344
-0.00586918
-0.0167595
-0.0195167
-0.00994421
0.00373753
0.0127505
0.0147241
0.0126658
0.0127311
0.0161823
0.0223742
0.0274859
0.0305696
0.0304327
0.0300181
0.0319081
0.0371044
0.0406521
0.0392001
0.036501
0.0391737
0.0443098
0.0439112
0.0392726
0.0392727
0.0439113
0.0443098
0.0391736
0.036501
0.0392001
0.0406522
0.0371043
0.031908
0.0300182
0.0304327
0.0305696
0.0274858
0.0223742
0.0161822
0.012731
0.0126657
0.0147241
0.0127505
0.00373746
-0.00994447
-0.0195171
-0.0167598
-0.00586921
0.00103363
-0.00704912
-0.0275297
-0.0505144
-0.0624216
-0.060015
-0.0503957
-0.0415444
-0.0390812
-0.040883
-0.0413378
-0.0361743
-0.0264156
-0.0150606
-0.00755844
-0.00761906
-0.0134355
-0.0235951
-0.0340859
-0.0411867
-0.0444091
-0.0425433
-0.0363849
-0.0278928
-0.0172528
-0.00567902
-0.00756988
-0.022667
-0.0363847
-0.0476066
-0.0552723
-0.0569774
-0.0522305
-0.0415126
-0.0262003
-0.0116052
-0.00261001
-0.00198255
-0.0111034
-0.0248672
-0.0369548
-0.0434644
-0.0426022
-0.040381
-0.0442575
-0.0555072
-0.0676653
-0.0700107
-0.0543798
-0.0252856
0.000760373
0.0110076
0.00289817
-0.0110642
-0.014853
-0.00397854
0.0125833
0.0236831
0.0262761
0.0238923
0.0233963
0.0270845
0.0340772
0.0405865
0.0438236
0.0432103
0.0424406
0.0451183
0.0506898
0.0541237
0.0524056
0.0499528
0.0527317
0.0578175
0.0573661
0.0528276
0.0528276
0.0573662
0.0578175
0.0527317
0.0499529
0.0524057
0.0541238
0.0506898
0.0451183
0.0424407
0.0432105
0.0438236
0.0405865
0.0340773
0.0270845
0.0233963
0.0238923
0.0262761
0.0236831
0.0125833
-0.00397877
-0.0148534
-0.0110645
0.00289818
0.0110078
0.000760365
-0.0252861
-0.0543807
-0.0700116
-0.0676658
-0.0555073
-0.0442574
-0.040381
-0.0426028
-0.0434652
-0.0369555
-0.0248677
-0.0111036
-0.00198245
-0.00260998
-0.0116054
-0.0262007
-0.0415134
-0.0522312
-0.0569781
-0.0552729
-0.0476069
-0.0363849
-0.0226672
-0.00756991
-0.00889117
-0.0265975
-0.0425429
-0.0552723
-0.0632048
-0.0635859
-0.0560489
-0.040988
-0.0210506
-0.00233517
0.01022
0.0124653
0.00318448
-0.0120107
-0.0260136
-0.0337954
-0.0336892
-0.0324228
-0.0378694
-0.0504737
-0.0640962
-0.0660719
-0.0475163
-0.0145046
0.0151169
0.0265446
0.0180757
0.00238071
-0.00273451
0.00736472
0.0240332
0.0355645
0.0381265
0.0354493
0.033734
0.0364641
0.0429005
0.0497541
0.0523508
0.0508899
0.0498296
0.0529813
0.0578357
0.0601309
0.0585138
0.0570793
0.059421
0.0631154
0.0627242
0.059512
0.059512
0.0627242
0.0631154
0.059421
0.0570793
0.0585138
0.0601309
0.0578357
0.0529814
0.0498297
0.05089
0.0523508
0.0497541
0.0429005
0.0364642
0.0337341
0.0354493
0.0381265
0.0355646
0.0240333
0.00736473
-0.00273468
0.00238057
0.0180759
0.0265449
0.0151171
-0.0145048
-0.0475169
-0.0660727
-0.0640966
-0.0504737
-0.0378693
-0.0324229
-0.0336897
-0.0337962
-0.0260143
-0.0120111
0.00318438
0.0124655
0.01022
-0.00233545
-0.0210511
-0.0409888
-0.0560498
-0.0635868
-0.0632057
-0.0552729
-0.0425433
-0.0265977
-0.00889121
-0.00951007
-0.0280272
-0.0444086
-0.0569774
-0.0635859
-0.0618632
-0.0511294
-0.0316524
-0.00704958
0.0163732
0.032796
0.0367437
0.0280343
0.0123763
-0.00287269
-0.0117288
-0.0134613
-0.0145353
-0.0226068
-0.0374983
-0.052348
-0.0539224
-0.0341268
-0.000608072
0.0295118
0.0409094
0.0329432
0.0173989
0.0111068
0.0190764
0.0336825
0.0445588
0.0471097
0.0447923
0.0420318
0.0432846
0.0484239
0.0546551
0.0562378
0.0539527
0.0529457
0.0561119
0.0594381
0.0598794
0.058705
0.0587205
0.0602468
0.0615942
0.061332
0.0602558
0.0602557
0.061332
0.0615943
0.0602469
0.0587205
0.058705
0.0598795
0.0594382
0.056112
0.0529458
0.0539527
0.0562379
0.0546552
0.048424
0.0432848
0.0420319
0.0447924
0.0471097
0.0445589
0.0336828
0.0190767
0.0111069
0.0173988
0.0329433
0.0409098
0.0295121
-0.00060806
-0.0341272
-0.0539229
-0.0523483
-0.0374981
-0.0226064
-0.0145351
-0.0134615
-0.0117294
-0.00287321
0.012376
0.0280342
0.0367439
0.0327961
0.0163729
-0.0070502
-0.0316534
-0.0511305
-0.0618642
-0.0635868
-0.0569781
-0.0444091
-0.0280275
-0.00951016
-0.00912781
-0.0261893
-0.0411862
-0.0522305
-0.0560489
-0.0511294
-0.0360406
-0.0114825
0.0176662
0.0453155
0.0644504
0.0695055
0.0617199
0.0460001
0.0296278
0.0191175
0.0138184
0.00854695
-0.00311122
-0.020701
-0.0358341
-0.0368196
-0.0178412
0.0130731
0.040596
0.0506324
0.0433758
0.0293773
0.0219833
0.026433
0.036959
0.0457486
0.0483299
0.0468431
0.0437441
0.0435613
0.0472445
0.0521616
0.0529184
0.0505573
0.0503077
0.0533628
0.0550111
0.0537367
0.0534246
0.0552078
0.0559439
0.0547845
0.0547317
0.0560776
0.0560776
0.0547316
0.0547845
0.055944
0.0552078
0.0534246
0.0537367
0.0550112
0.0533629
0.0503078
0.0505572
0.0529184
0.0521617
0.0472446
0.0435614
0.0437442
0.0468431
0.0483298
0.0457487
0.0369592
0.0264333
0.0219834
0.0293772
0.0433759
0.0506327
0.0405965
0.0130734
-0.0178411
-0.0368198
-0.0358341
-0.0207006
-0.00311067
0.00854744
0.0138186
0.0191173
0.0296275
0.046
0.06172
0.0695057
0.0644506
0.0453154
0.0176657
-0.0114834
-0.0360417
-0.0511305
-0.0560498
-0.0522312
-0.0411867
-0.0261895
-0.00912794
-0.00783433
-0.0220496
-0.0340854
-0.0415126
-0.040988
-0.0316524
-0.0114825
0.0176471
0.0503214
0.0810923
0.102112
0.108615
0.102022
0.0858232
0.0677757
0.0542426
0.0430745
0.031164
0.0145592
-0.00613274
-0.0213044
-0.0218249
-0.00488912
0.021924
0.0450804
0.0532773
0.0478377
0.0375158
0.0303676
0.0310685
0.0365355
0.0422295
0.0448461
0.0444225
0.0417194
0.0403657
0.0423007
0.0450188
0.0449265
0.0431015
0.0438359
0.0464303
0.0463709
0.0437585
0.0443131
0.0476837
0.0477666
0.0444737
0.0445832
0.0480492
0.0480492
0.0445832
0.0444737
0.0477666
0.0476837
0.044313
0.0437584
0.0463709
0.0464303
0.0438358
0.0431013
0.0449264
0.0450188
0.0423007
0.0403657
0.0417194
0.0444224
0.044846
0.0422296
0.0365358
0.0310689
0.0303678
0.0375158
0.0478376
0.0532776
0.0450809
0.0219246
-0.00488884
-0.0218248
-0.0213043
-0.00613239
0.0145598
0.0311645
0.0430749
0.0542428
0.0677757
0.0858234
0.102022
0.108615
0.102112
0.0810923
0.0503212
0.0176467
-0.0114834
-0.0316534
-0.0409888
-0.0415134
-0.0340859
-0.0220498
-0.00783446
-0.00571035
-0.0158836
-0.0235948
-0.0262003
-0.0210506
-0.00704958
0.0176662
0.0503214
0.0859116
0.118915
0.14074
0.147728
0.141466
0.12493
0.105884
0.0889451
0.0712889
0.0519777
0.0293296
0.0050547
-0.0102098
-0.0101348
0.0037514
0.0244727
0.0412145
0.0468244
0.0442146
0.0390762
0.0339891
0.0317889
0.0326585
0.0355029
0.0387378
0.0404582
0.039771
0.0389158
0.0396705
0.0404576
0.0401061
0.0399255
0.0419978
0.0442683
0.0429833
0.0398003
0.0411262
0.04569
0.0454299
0.0407868
0.0409841
0.0458723
0.0458723
0.0409841
0.0407868
0.0454299
0.04569
0.0411261
0.0398003
0.0429834
0.0442683
0.0419977
0.0399254
0.040106
0.0404577
0.0396706
0.0389157
0.0397708
0.040458
0.0387377
0.0355029
0.0326587
0.0317891
0.0339891
0.0390759
0.0442142
0.0468244
0.041215
0.0244733
0.00375181
-0.0101346
-0.0102098
0.00505496
0.0293304
0.0519784
0.0712895
0.0889456
0.105884
0.12493
0.141467
0.147728
0.140741
0.118915
0.0859115
0.0503211
0.0176657
-0.00705021
-0.0210511
-0.0262007
-0.0235952
-0.0158838
-0.00571041
-0.00354114
-0.00986412
-0.0134354
-0.0116052
-0.00233517
0.0163732
0.0453155
0.0810923
0.118915
0.152403
0.173738
0.180738
0.174865
0.158861
0.13932
0.118563
0.0943246
0.0673991
0.0386016
0.0122615
-0.00158017
5.44882e-06
0.0112161
0.0255511
0.0357745
0.0390707
0.0399599
0.0407004
0.0389662
0.0347414
0.0312405
0.030873
0.0339278
0.0375139
0.0393159
0.0397065
0.0392379
0.038006
0.0374282
0.0390957
0.0423172
0.0442424
0.0421737
0.0390034
0.0408274
0.0459619
0.0456221
0.0405184
0.0407386
0.0461846
0.0461846
0.0407386
0.0405184
0.0456221
0.0459618
0.0408273
0.0390035
0.0421738
0.0442424
0.042317
0.0390955
0.0374282
0.038006
0.039238
0.0397064
0.0393156
0.0375136
0.0339276
0.0308731
0.0312407
0.0347415
0.0389661
0.0407
0.0399594
0.0390705
0.0357749
0.0255517
0.0112166
5.70782e-06
-0.00158026
0.0122614
0.038602
0.0673998
0.0943252
0.118564
0.13932
0.158861
0.174866
0.180738
0.173738
0.152404
0.118915
0.0810923
0.0453154
0.0163728
-0.00233547
-0.0116054
-0.0134355
-0.00986413
-0.00354111
-0.00251441
-0.0067666
-0.00761907
-0.00261001
0.01022
0.032796
0.0644504
0.102112
0.14074
0.173738
0.195399
0.203698
0.199624
0.185917
0.166955
0.143442
0.114019
0.0801895
0.0460519
0.0191428
0.00716736
0.0102388
0.0195587
0.0280188
0.0321466
0.0335352
0.0381174
0.0451696
0.0479196
0.0431071
0.0360893
0.0325157
0.0343695
0.0389967
0.0431505
0.0448215
0.0429964
0.0395273
0.0382517
0.0409202
0.044567
0.0457258
0.0428905
0.0397872
0.0415659
0.0462971
0.0457677
0.0408556
0.0409903
0.0461037
0.0461037
0.0409903
0.0408556
0.0457677
0.0462971
0.0415658
0.0397873
0.0428906
0.0457257
0.0445669
0.0409201
0.0382519
0.0395274
0.0429965
0.0448215
0.0431503
0.0389965
0.0343696
0.032516
0.0360896
0.0431073
0.0479196
0.0451693
0.0381169
0.0335351
0.0321471
0.0280194
0.0195591
0.010239
0.00716711
0.0191425
0.0460519
0.0801899
0.114019
0.143442
0.166955
0.185917
0.199625
0.203698
0.195399
0.173738
0.140741
0.102112
0.0644506
0.0327961
0.0102199
-0.00261
-0.00761908
-0.00676658
-0.00251437
-0.00283861
-0.00713401
-0.00755859
-0.00198255
0.0124653
0.0367437
0.0695055
0.108615
0.147728
0.180738
0.203698
0.213719
0.212861
0.204163
0.188629
0.165609
0.13409
0.0955901
0.0580618
0.0316995
0.0215187
0.0258872
0.0331903
0.0349545
0.031995
0.0306721
0.0374873
0.0492544
0.0559442
0.051188
0.0415717
0.0347901
0.0344815
0.0391626
0.0451841
0.0480939
0.0453807
0.0402274
0.0379891
0.0409008
0.0444947
0.0447852
0.0412701
0.0384867
0.0399688
0.0434782
0.0425435
0.0384483
0.0385234
0.0425626
0.0425626
0.0385234
0.0384483
0.0425436
0.0434782
0.0399689
0.0384869
0.0412703
0.0447853
0.0444946
0.040901
0.0379894
0.0402277
0.0453809
0.048094
0.045184
0.0391626
0.0344819
0.0347906
0.0415721
0.0511881
0.0559441
0.049254
0.0374869
0.030672
0.0319955
0.0349553
0.0331909
0.0258873
0.0215184
0.0316992
0.0580617
0.0955904
0.134091
0.165609
0.188628
0.204162
0.21286
0.213719
0.203698
0.180738
0.147728
0.108615
0.0695057
0.0367439
0.0124654
-0.00198247
-0.00755845
-0.00713393
-0.0028386
-0.00464815
-0.0121198
-0.0150605
-0.0111034
0.00318448
0.0280343
0.0617199
0.102022
0.141466
0.174865
0.199624
0.212861
0.21777
0.216318
0.205908
0.185139
0.153142
0.111739
0.0728572
0.0483023
0.0404645
0.0460728
0.0510979
0.0463183
0.0367393
0.0324264
0.0393706
0.0530117
0.0616415
0.056521
0.0441247
0.033085
0.028628
0.0310083
0.0366552
0.0393929
0.0356685
0.0289024
0.0250503
0.0271675
0.0301318
0.0292383
0.0251433
0.0231348
0.024407
0.0260381
0.024551
0.0219422
0.0221497
0.0245342
0.0245342
0.0221497
0.0219422
0.024551
0.0260382
0.024407
0.0231348
0.0251434
0.0292383
0.0301318
0.0271676
0.0250506
0.0289026
0.0356685
0.0393929
0.0366553
0.0310085
0.0286285
0.0330857
0.0441252
0.0565211
0.0616416
0.0530117
0.0393708
0.0324267
0.0367401
0.0463193
0.0510988
0.0460731
0.0404642
0.0483019
0.0728568
0.111739
0.153142
0.185139
0.205908
0.216317
0.217769
0.21286
0.199625
0.174866
0.141467
0.102022
0.06172
0.0280342
0.00318436
-0.0111036
-0.0150606
-0.0121198
-0.00464819
-0.00715049
-0.0195513
-0.0264152
-0.0248672
-0.0120107
0.0123763
0.0460001
0.0858232
0.12493
0.158861
0.185917
0.204163
0.216318
0.222831
0.218854
0.20193
0.17096
0.128452
0.0892661
0.0658139
0.058716
0.0630507
0.063932
0.0523775
0.0362932
0.0282842
0.0334478
0.0469736
0.056443
0.0519253
0.0382874
0.0243398
0.0163154
0.0159446
0.0203333
0.0227711
0.0192432
0.0119002
0.0069937
0.00822758
0.0104774
0.00814916
0.00392461
0.00340542
0.00470542
0.00387559
0.00177978
0.0012481
0.00175738
0.00199036
0.00199039
0.00175737
0.001248
0.00177976
0.00387571
0.00470547
0.00340533
0.00392455
0.00814919
0.0104774
0.0082277
0.00699396
0.0119004
0.0192431
0.022771
0.0203335
0.0159451
0.0163161
0.0243405
0.0382878
0.0519254
0.056443
0.0469737
0.0334482
0.0282848
0.036294
0.0523784
0.0639329
0.063051
0.0587159
0.0658136
0.0892657
0.128452
0.17096
0.20193
0.218854
0.22283
0.216317
0.204162
0.185917
0.158861
0.12493
0.0858234
0.046
0.012376
-0.0120111
-0.0248677
-0.0264156
-0.0195515
-0.00715058
-0.00928041
-0.0259018
-0.0361737
-0.0369548
-0.0260136
-0.00287269
0.0296278
0.0677757
0.105884
0.13932
0.166955
0.188629
0.205908
0.218854
0.221392
0.208665
0.179604
0.137806
0.0994494
0.0769519
0.0702142
0.0722354
0.0684049
0.0508535
0.0288518
0.0172793
0.0197166
0.0314334
0.0403966
0.0369138
0.0236687
0.00867169
-0.00144751
-0.00458785
-0.0018193
0.000652974
-0.00127488
-0.00767378
-0.011959
-0.0105205
-0.00863383
-0.0120529
-0.0152379
-0.0129661
-0.0111112
-0.0143148
-0.016564
-0.0143096
-0.0133029
-0.0154736
-0.0154736
-0.0133029
-0.0143097
-0.0165641
-0.0143147
-0.0111112
-0.0129664
-0.0152382
-0.0120528
-0.0086337
-0.0105204
-0.011959
-0.0076738
-0.00127505
0.000652774
-0.00181916
-0.00458732
-0.00144694
0.00867198
0.0236687
0.0369136
0.0403965
0.0314335
0.019717
0.0172798
0.0288524
0.0508542
0.0684057
0.0722357
0.0702141
0.0769517
0.0994491
0.137806
0.179604
0.208665
0.221391
0.218854
0.205908
0.188628
0.166955
0.13932
0.105884
0.0677757
0.0296275
-0.00287321
-0.0260143
-0.0369555
-0.0361743
-0.0259022
-0.00928055
-0.010356
-0.0291968
-0.0413371
-0.0434644
-0.0337954
-0.0117288
0.0191175
0.0542426
0.0889451
0.118563
0.143442
0.165609
0.185139
0.20193
0.208665
0.19795
0.170149
0.130323
0.0944361
0.0744762
0.0695137
0.0700326
0.062819
0.0422934
0.0179087
0.00558182
0.00666473
0.0163928
0.0247253
0.0231636
0.0123132
-0.00142316
-0.0119377
-0.0175381
-0.016677
-0.0142205
-0.0144204
-0.0189378
-0.0210761
-0.0185615
-0.0173841
-0.0217513
-0.0230275
-0.0173709
-0.0149856
-0.0202523
-0.0221467
-0.016918
-0.0154965
-0.0200608
-0.0200607
-0.0154964
-0.0169181
-0.0221469
-0.0202523
-0.0149855
-0.0173711
-0.0230279
-0.0217513
-0.0173838
-0.0185615
-0.0210765
-0.018938
-0.0144206
-0.0142207
-0.0166769
-0.0175377
-0.0119373
-0.00142328
0.0123127
0.0231631
0.0247251
0.0163929
0.00666508
0.00558216
0.0179088
0.0422936
0.0628194
0.0700328
0.0695134
0.0744757
0.0944355
0.130322
0.170149
0.19795
0.208665
0.20193
0.185139
0.165609
0.143442
0.118564
0.0889456
0.0542428
0.0191173
-0.0117294
-0.0337962
-0.0434652
-0.0413378
-0.0291972
-0.0103561
-0.0101651
-0.0289665
-0.0408825
-0.0426022
-0.0336892
-0.0134613
0.0138184
0.0430745
0.0712889
0.0943246
0.114019
0.13409
0.153142
0.17096
0.179604
0.170149
0.144613
0.108949
0.0773723
0.0614273
0.0591655
0.0588048
0.0499417
0.0299159
0.00761701
-0.00204847
0.000417091
0.00995501
0.0191948
0.0214615
0.0157144
0.00651268
-0.00206995
-0.0085575
-0.00919877
-0.00706019
-0.00648338
-0.00876278
-0.00788567
-0.0044367
-0.00506444
-0.0106404
-0.0100773
-0.00206122
-1.48402e-05
-0.00706375
-0.00844751
-0.00108119
0.000279108
-0.0063315
-0.00633145
0.000279186
-0.00108122
-0.00844763
-0.00706371
-1.4687e-05
-0.00206129
-0.0100775
-0.0106404
-0.00506397
-0.00443647
-0.00788596
-0.00876302
-0.00648322
-0.00705989
-0.0091984
-0.00855695
-0.00206954
0.00651239
0.0157137
0.0214608
0.0191944
0.0099549
0.000417099
-0.00204863
0.00761646
0.0299154
0.0499413
0.0588046
0.0591649
0.0614264
0.0773714
0.108948
0.144613
0.170149
0.179604
0.17096
0.153142
0.134091
0.114019
0.0943252
0.0712895
0.043075
0.0138186
-0.0134615
-0.0336897
-0.0426028
-0.040883
-0.0289669
-0.0101652
-0.00967899
-0.0277773
-0.039081
-0.040381
-0.0324228
-0.0145353
0.00854695
0.031164
0.0519777
0.0673991
0.0801895
0.0955901
0.111739
0.128452
0.137806
0.130323
0.108949
0.0804804
0.0567125
0.0481842
0.0514921
0.0526476
0.0450651
0.0286483
0.011389
0.00603599
0.0109797
0.020376
0.0290546
0.033754
0.0324562
0.027799
0.0208607
0.0135888
0.0106398
0.0104372
0.0096808
0.00914244
0.0129721
0.0164591
0.0134692
0.00710331
0.00921529
0.0179241
0.019116
0.0114072
0.0108419
0.019071
0.0200119
0.0122867
0.0122867
0.020012
0.0190712
0.0108419
0.0114071
0.0191161
0.0179243
0.00921532
0.00710344
0.0134697
0.0164596
0.012972
0.00914226
0.0096812
0.0104379
0.0106404
0.0135893
0.0208609
0.0277985
0.0324553
0.0337532
0.0290543
0.0203759
0.0109795
0.00603552
0.0113882
0.0286475
0.0450645
0.0526472
0.0514915
0.0481832
0.0567113
0.0804795
0.108948
0.130322
0.137806
0.128452
0.111739
0.0955904
0.0801899
0.0673998
0.0519784
0.0311645
0.00854743
-0.0145351
-0.0324229
-0.0403811
-0.0390812
-0.0277775
-0.009679
-0.010269
-0.0291626
-0.0415444
-0.0442575
-0.0378694
-0.0226068
-0.00311122
0.0145592
0.0293296
0.0386016
0.0460519
0.0580618
0.0728572
0.0892661
0.0994494
0.0944361
0.0773723
0.0567125
0.0423154
0.0423068
0.0514521
0.0543041
0.0486475
0.0367609
0.0258764
0.0262229
0.0347177
0.0439792
0.050788
0.0567041
0.0588109
0.0574537
0.0513979
0.0432053
0.0365963
0.0310635
0.0263067
0.0256684
0.0302609
0.0315019
0.0254186
0.0182266
0.0201945
0.0268433
0.0263536
0.0189233
0.0188297
0.026106
0.0262191
0.0185438
0.0185437
0.026219
0.0261062
0.0188298
0.0189231
0.0263536
0.0268437
0.0201949
0.0182269
0.0254189
0.0315024
0.0302611
0.0256684
0.0263073
0.0310647
0.0365972
0.0432057
0.0513978
0.0574533
0.0588102
0.0567035
0.0507879
0.0439795
0.0347177
0.0262223
0.0258756
0.0367602
0.048647
0.0543038
0.0514517
0.0423058
0.042314
0.0567114
0.0773714
0.0944355
0.0994491
0.0892657
0.0728568
0.0580617
0.046052
0.0386021
0.0293304
0.0145598
-0.00311068
-0.0226065
-0.0378693
-0.0442575
-0.0415444
-0.0291626
-0.010269
-0.0125344
-0.0349586
-0.0503955
-0.0555072
-0.0504737
-0.0374983
-0.020701
-0.00613274
0.0050547
0.0122615
0.0191428
0.0316995
0.0483023
0.0658139
0.0769519
0.0744762
0.0614273
0.0481842
0.0423068
0.0480441
0.0593343
0.0610894
0.0545404
0.044579
0.0384466
0.0433882
0.0542507
0.0621162
0.0662238
0.0723612
0.0765118
0.0771274
0.0723524
0.0642858
0.0538508
0.0420454
0.0327493
0.0310498
0.0343856
0.0324437
0.0242248
0.0171281
0.0177574
0.0207291
0.0186485
0.0126846
0.0128443
0.0179542
0.0172561
0.0108058
0.0108057
0.017256
0.0179544
0.0128445
0.0126845
0.0186484
0.0207295
0.0177581
0.0171284
0.0242249
0.032444
0.0343861
0.0310502
0.0327499
0.0420464
0.0538517
0.0642859
0.0723519
0.0771267
0.0765112
0.0723607
0.0662236
0.0621165
0.0542508
0.0433877
0.0384459
0.0445786
0.0545403
0.0610895
0.0593345
0.0480437
0.0423058
0.0481832
0.0614265
0.0744757
0.0769517
0.0658137
0.048302
0.0316992
0.0191425
0.0122614
0.00505497
-0.00613238
-0.0207006
-0.0374981
-0.0504737
-0.0555073
-0.0503957
-0.0349588
-0.0125344
-0.0147357
-0.0410849
-0.0600145
-0.0676653
-0.0640962
-0.052348
-0.0358341
-0.0213044
-0.0102098
-0.00158017
0.00716736
0.0215187
0.0404645
0.058716
0.0702142
0.0695137
0.0591655
0.0514921
0.0514521
0.0593343
0.0690372
0.0664699
0.0548605
0.0428131
0.0383658
0.0447241
0.0552996
0.0605747
0.062002
0.0673678
0.0722807
0.0747547
0.0730117
0.0670331
0.0542909
0.0383006
0.026309
0.0237088
0.0249807
0.0208801
0.0127847
0.00732676
0.0067249
0.00628024
0.00349282
-4.45343e-05
0.000520667
0.00334625
0.00227219
-0.00217307
-0.00217319
0.00227207
0.00334643
0.000520929
-4.45288e-05
0.00349276
0.00628057
0.0067256
0.00732718
0.0127847
0.0208802
0.0249812
0.0237095
0.0263094
0.0383011
0.0542912
0.0670326
0.0730104
0.0747533
0.0722798
0.0673672
0.0620015
0.0605746
0.0552996
0.0447239
0.0383654
0.0428131
0.0548612
0.0664707
0.0690378
0.0593345
0.0514517
0.0514915
0.059165
0.0695134
0.0702141
0.0587159
0.0404642
0.0215184
0.00716712
-0.00158025
-0.0102097
-0.0213043
-0.0358341
-0.0523482
-0.0640965
-0.0676658
-0.060015
-0.0410853
-0.0147358
-0.015364
-0.0428381
-0.0624207
-0.0700107
-0.0660719
-0.0539224
-0.0368196
-0.0218249
-0.0101348
5.44882e-06
0.0102388
0.0258872
0.0460728
0.0630507
0.0722354
0.0700326
0.0588048
0.0526476
0.0543041
0.0610894
0.0664699
0.0572593
0.0385527
0.0233352
0.0200616
0.0272233
0.038324
0.0436792
0.045218
0.051065
0.0580109
0.0644519
0.0678919
0.0657157
0.0530584
0.035976
0.0228394
0.0186049
0.01687
0.0110681
0.00359769
-0.000351691
-0.00212198
-0.00547316
-0.0090899
-0.0108203
-0.0100908
-0.00924435
-0.0104659
-0.0128981
-0.0128982
-0.010466
-0.00924434
-0.0100907
-0.01082
-0.00908972
-0.00547295
-0.00212154
-0.000351283
0.00359771
0.0110679
0.0168703
0.0186057
0.0228398
0.0359758
0.0530578
0.0657146
0.0678901
0.0644501
0.0580097
0.0510644
0.0452176
0.0436789
0.038324
0.0272234
0.0200617
0.0233355
0.0385534
0.0572603
0.0664707
0.0610895
0.0543038
0.0526472
0.0588046
0.0700328
0.0722357
0.063051
0.0460731
0.0258873
0.010239
5.71766e-06
-0.0101346
-0.0218248
-0.0368198
-0.0539229
-0.0660727
-0.0700116
-0.0624216
-0.0428387
-0.0153642
-0.0130002
-0.0355531
-0.0505135
-0.0543798
-0.0475163
-0.0341268
-0.0178412
-0.00488912
0.0037514
0.0112161
0.0195587
0.0331903
0.0510979
0.063932
0.0684049
0.062819
0.0499417
0.0450651
0.0486475
0.0545404
0.0548605
0.0385527
0.0129235
-0.00579868
-0.0093108
-0.00254492
0.00935148
0.0163231
0.0197056
0.0277634
0.0393167
0.0522792
0.0628938
0.0671614
0.0591187
0.0454777
0.0336905
0.0288204
0.0252816
0.0187869
0.0118113
0.00924287
0.00745379
0.00236856
-0.00256247
-0.00363763
-0.00287441
-0.00339419
-0.00468642
-0.00551079
-0.00551071
-0.00468632
-0.00339424
-0.0028743
-0.00363711
-0.00256185
0.00236886
0.00745397
0.00924325
0.0118117
0.0187871
0.0252818
0.0288209
0.0336908
0.0454769
0.0591171
0.0671596
0.0628918
0.0522774
0.0393154
0.0277628
0.0197053
0.0163229
0.00935138
-0.00254484
-0.00931044
-0.00579829
0.012924
0.0385534
0.0548612
0.0545403
0.048647
0.0450644
0.0499413
0.0628194
0.0684057
0.0639329
0.0510988
0.0331909
0.0195591
0.0112166
0.00375183
-0.00488882
-0.0178411
-0.0341272
-0.0475169
-0.0543807
-0.0505143
-0.0355537
-0.0130005
-0.00815209
-0.0210131
-0.0275293
-0.0252856
-0.0145046
-0.000608072
0.0130731
0.021924
0.0244727
0.0255511
0.0280188
0.0349545
0.0463183
0.0523775
0.0508535
0.0422934
0.0299159
0.0286483
0.0367609
0.044579
0.0428131
0.0233352
-0.00579868
-0.0267283
-0.030821
-0.024913
-0.0131163
-0.00536713
-0.000358357
0.0100535
0.0261833
0.0445331
0.0612544
0.0724422
0.0711808
0.062524
0.0527891
0.0480206
0.0433641
0.035413
0.0271615
0.0251682
0.023985
0.0175334
0.0102791
0.00861504
0.0090282
0.00726196
0.00568866
0.00609213
0.00609228
0.00568887
0.00726198
0.00902833
0.0086157
0.01028
0.0175339
0.023985
0.0251684
0.0271621
0.0354134
0.0433641
0.0480206
0.0527888
0.0625229
0.0711787
0.0724398
0.0612524
0.0445317
0.0261825
0.0100531
-0.000358415
-0.00536688
-0.0131159
-0.0249126
-0.0308203
-0.0267278
-0.00579827
0.0233355
0.0428132
0.0445787
0.0367602
0.0286475
0.0299154
0.0422936
0.0508542
0.0523784
0.0463193
0.0349553
0.0280194
0.0255517
0.0244733
0.0219246
0.0130734
-0.000608058
-0.0145048
-0.0252861
-0.0275298
-0.0210135
-0.00815226
-0.00380366
-0.00808249
-0.00704908
0.000760373
0.0151169
0.0295118
0.040596
0.0450804
0.0412145
0.0357745
0.0321466
0.031995
0.0367393
0.0362932
0.0288518
0.0179087
0.00761701
0.011389
0.0258764
0.0384466
0.0383658
0.0200616
-0.0093108
-0.030821
-0.0352524
-0.0312269
-0.0221034
-0.0160085
-0.0110082
-0.000223984
0.0176033
0.0380118
0.0584419
0.0754058
0.0805731
0.0765974
0.0696059
0.0662332
0.0608168
0.0501455
0.039269
0.0373186
0.0365895
0.0283885
0.0183265
0.0156351
0.0151457
0.011521
0.00933441
0.0109601
0.0109602
0.00933468
0.0115212
0.015146
0.0156356
0.0183273
0.0283889
0.0365894
0.0373185
0.0392693
0.0501459
0.0608167
0.0662324
0.0696047
0.0765958
0.0805709
0.0754034
0.0584401
0.0380111
0.0176034
-0.000223627
-0.0110076
-0.0160076
-0.0221023
-0.0312258
-0.0352514
-0.0308203
-0.00931042
0.0200617
0.0383654
0.0384459
0.0258756
0.0113882
0.00761647
0.0179088
0.0288524
0.036294
0.0367401
0.0319955
0.0321471
0.0357749
0.0412149
0.0450809
0.0405965
0.0295121
0.0151171
0.000760337
-0.00704915
-0.00808254
-0.00380373
-0.00205055
-0.00301387
0.00103344
0.0110076
0.0265446
0.0409094
0.0506324
0.0532773
0.0468244
0.0390707
0.0335352
0.0306721
0.0324264
0.0282842
0.0172793
0.00558182
-0.00204847
0.00603599
0.0262229
0.0433882
0.0447241
0.0272233
-0.00254492
-0.024913
-0.0312269
-0.0317541
-0.0284769
-0.0264632
-0.023462
-0.0146396
0.00255264
0.0232158
0.0462266
0.0680244
0.0792966
0.0810161
0.0795039
0.0801427
0.0751842
0.0624041
0.0499617
0.0485292
0.0476508
0.0373712
0.0253057
0.0222896
0.0204093
0.0139537
0.0108496
0.0139535
0.0139536
0.0108499
0.0139541
0.0204098
0.02229
0.0253061
0.0373716
0.0476508
0.0485289
0.0499615
0.0624041
0.0751838
0.0801413
0.0795019
0.0810139
0.0792944
0.0680226
0.0462255
0.0232158
0.00255341
-0.0146386
-0.0234609
-0.026462
-0.0284755
-0.0317527
-0.0312258
-0.0249126
-0.00254484
0.0272234
0.0447239
0.0433878
0.0262224
0.00603553
-0.00204862
0.00558217
0.0172799
0.0282848
0.0324268
0.030672
0.0335351
0.0390705
0.0468244
0.0532776
0.0506327
0.0409098
0.0265449
0.0110078
0.00103361
-0.00301376
-0.00205055
-0.00368287
-0.00778516
-0.00586918
0.00289817
0.0180757
0.0329432
0.0433758
0.0478377
0.0442146
0.0399599
0.0381174
0.0374873
0.0393706
0.0334478
0.0197166
0.00666473
0.000417091
0.0109797
0.0347177
0.0542507
0.0552996
0.038324
0.00935148
-0.0131163
-0.0221034
-0.0284769
-0.0328887
-0.0373546
-0.0393214
-0.0354041
-0.0216677
-0.00342918
0.0192976
0.0429656
0.0587022
0.0666527
0.0727539
0.0791045
0.0761284
0.0637281
0.0527033
0.0528518
0.0514043
0.0395603
0.0275519
0.0257808
0.0226548
0.0129662
0.00885156
0.0135282
0.0135283
0.00885188
0.0129668
0.0226553
0.0257808
0.0275517
0.0395603
0.0514044
0.0528514
0.0527024
0.0637273
0.0761274
0.0791027
0.0727513
0.0666501
0.0587003
0.0429644
0.0192973
-0.00342856
-0.0216665
-0.0354028
-0.0393199
-0.0373531
-0.0328872
-0.0284755
-0.0221023
-0.0131159
0.00935138
0.038324
0.0552997
0.0542508
0.0347177
0.0109795
0.000417096
0.00666508
0.019717
0.0334482
0.0393708
0.0374869
0.0381169
0.0399594
0.0442142
0.0478376
0.0433759
0.0329433
0.0180759
0.00289818
-0.00586922
-0.00778522
-0.00368294
-0.0060501
-0.0148043
-0.0167595
-0.0110642
0.00238071
0.0173989
0.0293773
0.0375158
0.0390762
0.0407004
0.0451696
0.0492544
0.0530117
0.0469736
0.0314334
0.0163928
0.00995501
0.020376
0.0439792
0.0621162
0.0605747
0.0436792
0.0163231
-0.00536713
-0.0160085
-0.0264632
-0.0373546
-0.0477751
-0.0542338
-0.0547481
-0.0447504
-0.0298621
-0.00911137
0.014215
0.0329705
0.0470884
0.0612777
0.0735639
0.0737761
0.0644505
0.057321
0.0593129
0.0566648
0.0437027
0.0330612
0.033232
0.0290938
0.0163325
0.0109133
0.0165008
0.0165009
0.0109137
0.016333
0.0290941
0.0332317
0.0330605
0.0437023
0.0566646
0.0593123
0.0573195
0.0644488
0.0737744
0.073562
0.0612751
0.047086
0.0329691
0.0142148
-0.00911076
-0.0298608
-0.0447487
-0.0547466
-0.0542324
-0.0477736
-0.0373531
-0.026462
-0.0160076
-0.00536688
0.0163229
0.0436789
0.0605746
0.0621165
0.0439795
0.0203759
0.00995487
0.0163929
0.0314335
0.0469737
0.0530117
0.049254
0.0451693
0.0407
0.0390759
0.0375158
0.0293773
0.0173988
0.00238059
-0.0110645
-0.0167598
-0.0148046
-0.00605025
-0.00655923
-0.0165587
-0.0195167
-0.014853
-0.00273451
0.0111068
0.0219833
0.0303676
0.0339891
0.0389662
0.0479196
0.0559442
0.0616415
0.056443
0.0403966
0.0247253
0.0191948
0.0290546
0.050788
0.0662238
0.062002
0.045218
0.0197056
-0.000358357
-0.0110082
-0.023462
-0.0393214
-0.0542338
-0.06388
-0.0681651
-0.0621097
-0.050979
-0.033407
-0.0126473
0.00708166
0.0259151
0.0469814
0.0644869
0.0689543
0.064948
0.0634553
0.0678285
0.0646759
0.0518117
0.0433284