/*--------------------------------*- C++ -*----------------------------------*\
  =========                 |
  \\      /  F ield         | OpenFOAM: The Open Source CFD Toolbox
   \\    /   O peration     | Website:  https://openfoam.org
    \\  /    A nd           | Version:  dev
     \\/     M anipulation  |
\*---------------------------------------------------------------------------*/
FoamFile
{
    format      ascii;
    class       volScalarField;
    location    "60";
    object      h_0;
}
// * * * * * * * * * * * * * * * * * * * * * * * * * * * * * * * * * * * * * //

dimensions      [0 1 0 0 0 0 0];

internalField   nonuniform List<scalar> 
10000
(
-0.00122895
-0.00351629
-0.00566364
-0.00755607
-0.00888778
-0.00951404
-0.00914227
-0.00785375
-0.00572548
-0.00355367
-0.00251808
-0.00282436
-0.00462199
-0.00712181
-0.00926255
-0.0103613
-0.0101795
-0.00969455
-0.0102751
-0.0125258
-0.0147389
-0.0154055
-0.0130923
-0.00826477
-0.00390036
-0.00210662
-0.0037157
-0.00610039
-0.0066475
-0.00430169
-0.00105155
0.00109181
0.00163272
0.00124062
0.00142821
0.0023891
0.00394707
0.00512075
0.00594382
0.00605001
0.00600079
0.00635755
0.00767176
0.00866775
0.00831751
0.007526
0.00821088
0.00960739
0.00950582
0.00822796
0.00822797
0.00950583
0.0096074
0.00821087
0.007526
0.00831754
0.00866777
0.00767176
0.00635754
0.00600081
0.00605004
0.00594383
0.00512074
0.00394707
0.00238909
0.00142819
0.00124058
0.0016327
0.00109179
-0.0010516
-0.00430181
-0.00664768
-0.00610053
-0.00371576
-0.00210661
-0.00390042
-0.00826493
-0.0130926
-0.0154057
-0.014739
-0.0125259
-0.0102751
-0.00969456
-0.0101796
-0.0103615
-0.0092627
-0.0071219
-0.00462203
-0.00282435
-0.00251803
-0.00355364
-0.00572555
-0.00785388
-0.0091424
-0.00951413
-0.00888783
-0.0075561
-0.00566363
-0.00351629
-0.00122896
-0.00351629
-0.0105889
-0.0172237
-0.022635
-0.026586
-0.028034
-0.0262296
-0.0221212
-0.0159594
-0.00992551
-0.00678296
-0.0070867
-0.0120377
-0.0194658
-0.0258499
-0.0292186
-0.0290261
-0.0278384
-0.0291909
-0.0349542
-0.0411266
-0.0429898
-0.0358374
-0.0213488
-0.0083667
-0.00317274
-0.00786818
-0.0149276
-0.0167862
-0.0103957
-0.00140329
0.00451366
0.00582914
0.00448088
0.00475337
0.00724609
0.0115558
0.0148853
0.017177
0.0173594
0.0172195
0.0183348
0.0220526
0.0247895
0.0238573
0.021779
0.0237107
0.0275419
0.0272833
0.0238258
0.0238258
0.0272834
0.0275419
0.0237106
0.021779
0.0238573
0.0247896
0.0220525
0.0183347
0.0172195
0.0173594
0.017177
0.0148852
0.0115557
0.00724602
0.00475328
0.00448075
0.00582907
0.00451361
-0.0014034
-0.010396
-0.0167865
-0.0149278
-0.00786822
-0.0031726
-0.00836674
-0.0213491
-0.0358381
-0.0429904
-0.041127
-0.0349543
-0.0291909
-0.0278386
-0.0290265
-0.029219
-0.0258503
-0.019466
-0.0120377
-0.00708661
-0.00678293
-0.00992551
-0.0159596
-0.0221215
-0.0262299
-0.0280343
-0.0265863
-0.0226351
-0.0172238
-0.0105889
-0.00351629
-0.00566364
-0.0172237
-0.027852
-0.0363473
-0.0425404
-0.0444451
-0.0412819
-0.0342309
-0.023751
-0.0135668
-0.0076761
-0.00752108
-0.0149659
-0.026311
-0.0361229
-0.0413925
-0.0409954
-0.0391934
-0.0416033
-0.0504062
-0.060099
-0.0626777
-0.0509705
-0.0280704
-0.00750495
0.000774447
-0.00600586
-0.0169499
-0.0198623
-0.0104349
0.00324925
0.0123488
0.014402
0.012332
0.0123576
0.0157652
0.0219342
0.0270558
0.0301865
0.0300868
0.0296341
0.0314656
0.0366686
0.0402854
0.0388414
0.0360922
0.0387472
0.0439255
0.0435371
0.0388679
0.038868
0.0435371
0.0439255
0.0387472
0.0360922
0.0388415
0.0402854
0.0366685
0.0314655
0.0296341
0.0300869
0.0301864
0.0270558
0.0219342
0.0157651
0.0123575
0.0123318
0.014402
0.0123487
0.00324918
-0.0104352
-0.0198627
-0.0169502
-0.00600588
0.000774637
-0.007505
-0.0280708
-0.0509714
-0.0626786
-0.0600994
-0.0504063
-0.0416033
-0.0391936
-0.040996
-0.0413932
-0.0361235
-0.0263114
-0.0149659
-0.00752093
-0.00767608
-0.0135669
-0.0237514
-0.0342314
-0.0412823
-0.0444456
-0.0425408
-0.0363475
-0.0278522
-0.0172238
-0.00566363
-0.00755607
-0.022635
-0.0363473
-0.0475929
-0.0553092
-0.0570795
-0.0524165
-0.0417552
-0.0264595
-0.0118371
-0.00274872
-0.00200851
-0.0110452
-0.0247886
-0.0369514
-0.0435815
-0.0427863
-0.0405621
-0.0443661
-0.0555471
-0.0677888
-0.0703506
-0.0549624
-0.0259746
0.000194058
0.0106903
0.0027388
-0.0112817
-0.0152579
-0.00455372
0.0120011
0.0232104
0.0258995
0.0235212
0.0229774
0.026617
0.0335835
0.0401137
0.0434089
0.0428431
0.0420363
0.0446473
0.0502296
0.053747
0.052044
0.0495292
0.0522905
0.0574314
0.0569935
0.0524121
0.0524121
0.0569935
0.0574314
0.0522905
0.0495292
0.0520441
0.0537471
0.0502296
0.0446474
0.0420364
0.0428432
0.0434089
0.0401137
0.0335835
0.0266171
0.0229774
0.0235211
0.0258994
0.0232104
0.0120011
-0.00455395
-0.0152583
-0.011282
0.00273881
0.0106905
0.000194045
-0.025975
-0.0549633
-0.0703515
-0.0677893
-0.0555472
-0.044366
-0.0405622
-0.0427868
-0.0435823
-0.0369521
-0.0247891
-0.0110454
-0.00200841
-0.0027487
-0.0118373
-0.0264599
-0.0417559
-0.0524172
-0.0570802
-0.0553098
-0.0475933
-0.0363475
-0.0226351
-0.0075561
-0.00888778
-0.026586
-0.0425404
-0.0553092
-0.0633036
-0.0637784
-0.0563506
-0.0413716
-0.0214729
-0.00271764
0.00996369
0.0123503
0.00317999
-0.0119859
-0.026072
-0.0339743
-0.033944
-0.0326654
-0.0380171
-0.0505541
-0.0642765
-0.0664944
-0.0481872
-0.0152797
0.0144955
0.0262102
0.0179303
0.00219844
-0.00310478
0.00682893
0.023483
0.0351328
0.0378003
0.0351495
0.033387
0.036064
0.0424725
0.0493502
0.0520057
0.0505898
0.0494966
0.0525788
0.0574442
0.0598218
0.0582212
0.0567172
0.0590439
0.0628003
0.062422
0.0591559
0.0591559
0.062422
0.0628003
0.0590439
0.0567173
0.0582213
0.0598219
0.0574442
0.0525789
0.0494967
0.0505899
0.0520057
0.0493502
0.0424726
0.0360641
0.033387
0.0351495
0.0378003
0.0351328
0.0234831
0.00682893
-0.00310495
0.0021983
0.0179304
0.0262106
0.0144957
-0.0152799
-0.0481879
-0.0664951
-0.0642769
-0.050554
-0.038017
-0.0326655
-0.0339445
-0.0339751
-0.0260727
-0.0119863
0.00317988
0.0123504
0.00996366
-0.00271793
-0.0214734
-0.0413723
-0.0563515
-0.0637793
-0.0633044
-0.0553098
-0.0425408
-0.0265863
-0.00888783
-0.00951404
-0.028034
-0.0444451
-0.0570795
-0.0637784
-0.0621859
-0.0515819
-0.0322005
-0.00763799
0.0158398
0.0323979
0.0365011
0.0279243
0.0123123
-0.0030033
-0.0119547
-0.0137469
-0.0147887
-0.022751
-0.0375845
-0.0525313
-0.0543504
-0.0347974
-0.00137142
0.0289117
0.0406048
0.0328326
0.0172746
0.0108123
0.0186391
0.0332229
0.0442057
0.0468649
0.0445937
0.0418019
0.0430042
0.0481238
0.0543794
0.0560204
0.0537726
0.0527437
0.05585
0.0591905
0.0597023
0.0585412
0.0584901
0.060009
0.0614193
0.0611661
0.0600298
0.0600298
0.0611661
0.0614193
0.060009
0.0584902
0.0585412
0.0597023
0.0591906
0.0558501
0.0527438
0.0537726
0.0560205
0.0543795
0.048124
0.0430044
0.041802
0.0445938
0.0468649
0.0442058
0.0332232
0.0186393
0.0108123
0.0172746
0.0328328
0.0406052
0.028912
-0.00137141
-0.0347977
-0.0543509
-0.0525315
-0.0375843
-0.0227507
-0.0147885
-0.013747
-0.0119553
-0.00300382
0.012312
0.0279242
0.0365013
0.0323979
0.0158394
-0.00763861
-0.0322014
-0.051583
-0.0621868
-0.0637793
-0.0570802
-0.0444456
-0.0280343
-0.00951413
-0.00914227
-0.0262296
-0.0412819
-0.0524165
-0.0563506
-0.0515819
-0.0366346
-0.012183
0.0169273
0.04464
0.0639161
0.0691531
0.0615254
0.0458684
0.0294553
0.0188749
0.0135404
0.00832189
-0.00322334
-0.0207649
-0.0359842
-0.037198
-0.0184365
0.0124252
0.0401126
0.0504244
0.0433482
0.029354
0.0218261
0.0261608
0.0366522
0.0455063
0.0481772
0.0467383
0.0436217
0.0433904
0.047055
0.0519882
0.0527904
0.0504501
0.0501841
0.0531998
0.0548646
0.0536373
0.053327
0.0550581
0.0557974
0.0546933
0.0546422
0.0559305
0.0559304
0.0546421
0.0546934
0.0557974
0.0550582
0.053327
0.0536373
0.0548647
0.0531999
0.0501841
0.05045
0.0527904
0.0519883
0.0470551
0.0433905
0.0436218
0.0467383
0.0481771
0.0455064
0.0366525
0.0261611
0.0218262
0.029354
0.0433483
0.0504247
0.040113
0.0124255
-0.0184364
-0.0371981
-0.0359842
-0.0207645
-0.00322279
0.00832237
0.0135406
0.0188747
0.0294549
0.0458682
0.0615254
0.0691533
0.0639164
0.0446399
0.0169268
-0.0121838
-0.0366357
-0.051583
-0.0563516
-0.0524172
-0.0412823
-0.0262299
-0.0091424
-0.00785375
-0.0221212
-0.0342309
-0.0417552
-0.0413716
-0.0322005
-0.012183
0.0168206
0.0494628
0.0803136
0.101492
0.10821
0.101787
0.0856652
0.0676243
0.0540564
0.0428839
0.0310482
0.0145394
-0.00614057
-0.021415
-0.0221484
-0.00539115
0.021414
0.044714
0.0531355
0.0478524
0.0375537
0.0303307
0.0309611
0.0363949
0.0421074
0.0447867
0.0444069
0.041704
0.0403131
0.0422285
0.0449532
0.0448837
0.0430549
0.04377
0.0463531
0.0463087
0.0437075
0.044243
0.0475848
0.0476802
0.0444231
0.0445236
0.0479452
0.0479452
0.0445236
0.0444231
0.0476803
0.0475847
0.0442429
0.0437074
0.0463088
0.0463531
0.0437699
0.0430547
0.0448836
0.0449532
0.0422286
0.0403131
0.041704
0.0444068
0.0447865
0.0421075
0.0363953
0.0309615
0.0303309
0.0375537
0.0478524
0.0531358
0.0447146
0.0214145
-0.00539088
-0.0221484
-0.0214149
-0.00614022
0.01454
0.0310488
0.0428843
0.0540566
0.0676243
0.0856654
0.101788
0.108211
0.101492
0.0803136
0.0494625
0.0168201
-0.0121839
-0.0322014
-0.0413723
-0.0417559
-0.0342314
-0.0221215
-0.00785388
-0.00572548
-0.0159594
-0.023751
-0.0264595
-0.0214729
-0.00763799
0.0169273
0.0494628
0.085048
0.11814
0.140118
0.14732
0.141223
0.124778
0.105784
0.0888468
0.0712252
0.0520073
0.0294182
0.0051171
-0.0102581
-0.0103703
0.00338193
0.0241237
0.0409739
0.0467267
0.0442197
0.0390992
0.0339851
0.0317569
0.0325891
0.035402
0.0386526
0.040405
0.0397341
0.0388636
0.0396047
0.0403989
0.0400528
0.0398461
0.0419044
0.0442056
0.0429436
0.0397348
0.0410284
0.0455995
0.0453654
0.0407304
0.0409117
0.0457816
0.0457816
0.0409116
0.0407304
0.0453654
0.0455994
0.0410283
0.0397348
0.0429437
0.0442056
0.0419043
0.0398459
0.0400527
0.040399
0.0396048
0.0388636
0.0397339
0.0404048
0.0386524
0.035402
0.0325893
0.0317571
0.0339851
0.0390989
0.0442193
0.0467267
0.0409744
0.0241243
0.00338233
-0.0103701
-0.0102581
0.00511737
0.0294189
0.052008
0.0712258
0.0888473
0.105784
0.124778
0.141224
0.147321
0.140119
0.11814
0.0850479
0.0494624
0.0169268
-0.00763863
-0.0214734
-0.02646
-0.0237514
-0.0159596
-0.00572555
-0.00355367
-0.00992551
-0.0135668
-0.0118371
-0.00271764
0.0158398
0.04464
0.0803136
0.11814
0.151711
0.173198
0.180404
0.174688
0.158779
0.139303
0.118572
0.0943884
0.0675463
0.0387545
0.0123383
-0.0016382
-0.000221885
0.0109096
0.0252997
0.0356083
0.038966
0.0398994
0.0406597
0.0389539
0.0347571
0.0312279
0.0307932
0.0338117
0.0374127
0.03924
0.0396367
0.0391641
0.0379421
0.0373478
0.0389606
0.0421742
0.0441695
0.0421283
0.0388927
0.0406765
0.045856
0.0455507
0.0404197
0.0406204
0.0460832
0.0460831
0.0406203
0.0404197
0.0455507
0.0458559
0.0406764
0.0388927
0.0421283
0.0441695
0.0421741
0.0389605
0.0373478
0.0379421
0.0391641
0.0396366
0.0392397
0.0374124
0.0338115
0.0307933
0.0312281
0.0347573
0.0389539
0.0406593
0.0398989
0.0389659
0.0356087
0.0253003
0.0109101
-0.000221629
-0.00163829
0.0123383
0.038755
0.0675469
0.094389
0.118572
0.139303
0.158779
0.174688
0.180405
0.173198
0.151711
0.11814
0.0803136
0.0446399
0.0158394
-0.00271795
-0.0118373
-0.0135669
-0.00992552
-0.00355364
-0.00251808
-0.00678296
-0.0076761
-0.00274872
0.00996369
0.0323979
0.0639161
0.101492
0.140118
0.173198
0.19501
0.203476
0.199528
0.185902
0.167004
0.143552
0.1142
0.080429
0.0462436
0.0191891
0.00703203
0.00995258
0.0192519
0.0277925
0.0319782
0.0333517
0.0379211
0.0450042
0.0478409
0.0431222
0.036111
0.032463
0.0342485
0.0388806
0.0430725
0.0447772
0.0429759
0.0395312
0.0382224
0.0408161
0.0444689
0.0457318
0.0429241
0.0397265
0.0414671
0.0462776
0.0457832
0.0408094
0.0409258
0.0460934
0.0460934
0.0409258
0.0408095
0.0457832
0.0462775
0.0414671
0.0397266
0.0429242
0.0457317
0.0444687
0.040816
0.0382226
0.0395313
0.042976
0.0447771
0.0430723
0.0388804
0.0342486
0.0324633
0.0361113
0.0431224
0.0478408
0.0450038
0.0379206
0.0333516
0.0319787
0.0277932
0.0192524
0.00995268
0.00703178
0.0191888
0.0462437
0.0804294
0.114201
0.143552
0.167004
0.185902
0.199528
0.203476
0.19501
0.173198
0.140119
0.101492
0.0639164
0.0323979
0.00996363
-0.00274872
-0.0076761
-0.00678294
-0.00251804
-0.00282436
-0.0070867
-0.00752108
-0.00200851
0.0123503
0.0365011
0.0691531
0.10821
0.14732
0.180404
0.203476
0.213587
0.212814
0.204173
0.188693
0.165768
0.134329
0.0958602
0.0582477
0.0316878
0.0213055
0.025572
0.0329128
0.0347749
0.0318577
0.0304574
0.037203
0.0489976
0.0558121
0.0511999
0.0416268
0.0347759
0.0343764
0.0390501
0.0451098
0.0480794
0.0454276
0.040319
0.0380366
0.0408712
0.0444935
0.0449105
0.0414216
0.0385366
0.0399966
0.0436096
0.0427057
0.038525
0.0385889
0.0427139
0.0427139
0.0385889
0.038525
0.0427057
0.0436097
0.0399966
0.0385368
0.0414218
0.0449105
0.0444935
0.0408714
0.038037
0.0403193
0.0454278
0.0480795
0.0451097
0.0390501
0.0343768
0.0347764
0.0416272
0.0512
0.055812
0.0489973
0.0372026
0.0304573
0.0318582
0.0347757
0.0329134
0.0255721
0.0213052
0.0316875
0.0582476
0.0958604
0.134329
0.165768
0.188693
0.204173
0.212814
0.213587
0.203476
0.180405
0.147321
0.108211
0.0691533
0.0365012
0.0123504
-0.00200843
-0.00752095
-0.00708661
-0.00282435
-0.00462199
-0.0120377
-0.0149659
-0.0110452
0.00317999
0.0279243
0.0615254
0.101787
0.141223
0.174688
0.199528
0.212814
0.217788
0.216366
0.206
0.185348
0.153429
0.11203
0.0730293
0.0482284
0.0401725
0.0457246
0.0508392
0.0461895
0.0366675
0.0322494
0.039095
0.0527777
0.0615755
0.0566475
0.0443388
0.0332542
0.0287013
0.0310535
0.0367165
0.0395206
0.0358789
0.0291545
0.0252364
0.0272744
0.0302721
0.0294879
0.0253993
0.023291
0.0245523
0.0262843
0.0248113
0.0221036
0.0223058
0.0247915
0.0247915
0.0223058
0.0221035
0.0248114
0.0262844
0.0245523
0.023291
0.0253994
0.0294879
0.0302721
0.0272745
0.0252367
0.0291547
0.0358789
0.0395206
0.0367166
0.0310538
0.0287018
0.0332549
0.0443393
0.0566477
0.0615756
0.0527777
0.0390951
0.0322498
0.0366683
0.0461905
0.05084
0.0457249
0.0401723
0.048228
0.0730289
0.11203
0.153429
0.185348
0.206
0.216365
0.217787
0.212814
0.199528
0.174688
0.141224
0.101788
0.0615254
0.0279242
0.00317986
-0.0110454
-0.0149659
-0.0120377
-0.00462203
-0.00712181
-0.0194658
-0.026311
-0.0247886
-0.0119859
0.0123123
0.0458684
0.0856652
0.124778
0.158779
0.185902
0.204173
0.216366
0.222896
0.218989
0.202226
0.171361
0.128857
0.0895351
0.0658087
0.0584853
0.0627995
0.0638022
0.052387
0.0363426
0.0281909
0.033219
0.0467795
0.0564254
0.0521097
0.0385873
0.0246251
0.0165186
0.016095
0.0204763
0.0229827
0.0195533
0.0122413
0.00726455
0.00844027
0.0107255
0.00847044
0.00423455
0.00363956
0.00494127
0.00419383
0.00209545
0.00146934
0.0019788
0.00231124
0.00231127
0.0019788
0.00146925
0.00209544
0.00419395
0.00494132
0.00363948
0.00423449
0.00847047
0.0107255
0.00844039
0.0072648
0.0122415
0.0195532
0.0229827
0.0204765
0.0160954
0.0165193
0.0246258
0.0385877
0.0521098
0.0564254
0.0467796
0.0332194
0.0281915
0.0363434
0.0523879
0.063803
0.0627998
0.0584851
0.0658084
0.0895347
0.128857
0.171361
0.202225
0.218988
0.222896
0.216365
0.204173
0.185902
0.158779
0.124778
0.0856654
0.0458682
0.012312
-0.0119863
-0.0247891
-0.0263114
-0.019466
-0.0071219
-0.00926255
-0.0258499
-0.0361229
-0.0369514
-0.026072
-0.0030033
0.0294553
0.0676243
0.105784
0.139303
0.167004
0.188693
0.206
0.218989
0.221641
0.209109
0.180185
0.13839
0.0998811
0.0771064
0.0701506
0.072181
0.0684795
0.051048
0.0290479
0.0173027
0.019572
0.0312902
0.0404038
0.0370873
0.0239587
0.00896656
-0.00122408
-0.00445386
-0.00172442
0.00080167
-0.0010445
-0.00743878
-0.0117907
-0.0103793
-0.00846967
-0.0118653
-0.0150794
-0.0128496
-0.0109857
-0.0141351
-0.0164006
-0.0142225
-0.0132131
-0.0153008
-0.0153007
-0.0132131
-0.0142227
-0.0164007
-0.014135
-0.0109856
-0.0128498
-0.0150797
-0.0118653
-0.00846953
-0.0103793
-0.0117907
-0.00743881
-0.00104466
0.000801473
-0.00172427
-0.00445333
-0.0012235
0.00896684
0.0239586
0.0370871
0.0404036
0.0312903
0.0195724
0.0173032
0.0290485
0.0510487
0.0684803
0.0721814
0.0701505
0.0771062
0.0998808
0.13839
0.180185
0.209109
0.221641
0.218988
0.206
0.188693
0.167004
0.139303
0.105784
0.0676243
0.029455
-0.00300382
-0.0260727
-0.0369521
-0.0361235
-0.0258503
-0.0092627
-0.0103613
-0.0292186
-0.0413925
-0.0435815
-0.0339743
-0.0119547
0.0188749
0.0540564
0.0888468
0.118572
0.143552
0.165768
0.185348
0.202226
0.209109
0.198598
0.170954
0.131117
0.0950459
0.0748042
0.0696128
0.0701343
0.0630261
0.0425766
0.0181478
0.00562715
0.00652143
0.0162166
0.0246653
0.0232183
0.0124731
-0.00123626
-0.0118068
-0.0175179
-0.0167157
-0.0142277
-0.0143879
-0.0189295
-0.0211198
-0.0185994
-0.017417
-0.0218091
-0.0231294
-0.0174842
-0.0150861
-0.020327
-0.0222463
-0.0170708
-0.0156464
-0.020152
-0.0201519
-0.0156463
-0.017071
-0.0222464
-0.0203269
-0.015086
-0.0174845
-0.0231298
-0.0218091
-0.0174167
-0.0185994
-0.0211202
-0.0189298
-0.0143881
-0.0142279
-0.0167156
-0.0175174
-0.0118064
-0.00123638
0.0124726
0.0232178
0.024665
0.0162167
0.00652178
0.00562749
0.018148
0.0425769
0.0630265
0.0701345
0.0696125
0.0748037
0.0950453
0.131116
0.170954
0.198598
0.209109
0.202225
0.185348
0.165768
0.143552
0.118572
0.0888473
0.0540566
0.0188747
-0.0119553
-0.0339751
-0.0435823
-0.0413932
-0.029219
-0.0103615
-0.0101795
-0.0290261
-0.0409954
-0.0427863
-0.033944
-0.0137469
0.0135404
0.0428839
0.0712252
0.0943884
0.1142
0.134329
0.153429
0.171361
0.180185
0.170954
0.145604
0.109914
0.0781285
0.0619071
0.0594066
0.0590158
0.0502083
0.0301774
0.00775097
-0.0021497
0.0001009
0.00957134
0.0188763
0.0212009
0.0155434
0.00640325
-0.0021962
-0.00876563
-0.00943904
-0.00727051
-0.00667588
-0.00897687
-0.00810456
-0.00460207
-0.00521235
-0.0108299
-0.0103082
-0.00227355
-0.000197511
-0.00723333
-0.00863978
-0.00130122
6.51372e-05
-0.00651042
-0.00651036
6.52134e-05
-0.00130125
-0.0086399
-0.00723329
-0.000197361
-0.00227361
-0.0103085
-0.0108298
-0.00521187
-0.00460185
-0.00810485
-0.00897712
-0.00667572
-0.00727021
-0.00943866
-0.00876508
-0.0021958
0.00640296
0.0155427
0.0212002
0.0188759
0.00957123
0.000100911
-0.00214986
0.00775043
0.0301768
0.050208
0.0590155
0.0594061
0.0619063
0.0781276
0.109913
0.145604
0.170954
0.180185
0.171361
0.153429
0.134329
0.114201
0.094389
0.0712258
0.0428843
0.0135406
-0.013747
-0.0339445
-0.0427868
-0.040996
-0.0290265
-0.0101796
-0.00969455
-0.0278384
-0.0391934
-0.0405621
-0.0326654
-0.0147887
0.00832189
0.0310482
0.0520073
0.0675463
0.080429
0.0958602
0.11203
0.128857
0.13839
0.131117
0.109914
0.0813866
0.0573966
0.0486239
0.0517267
0.052854
0.045311
0.028836
0.0113916
0.00581113
0.0105596
0.0198831
0.0285797
0.0332908
0.0320598
0.0274791
0.0205598
0.0132477
0.0102984
0.0101096
0.00934781
0.00878642
0.0126433
0.0162135
0.0132666
0.0068561
0.00892331
0.0176663
0.0189088
0.0112071
0.0106206
0.0188445
0.0197966
0.0120846
0.0120846
0.0197966
0.0188446
0.0106206
0.0112071
0.0189089
0.0176665
0.00892334
0.00685623
0.0132671
0.0162139
0.0126432
0.00878622
0.00934821
0.0101103
0.010299
0.0132481
0.0205599
0.0274786
0.0320588
0.03329
0.0285794
0.019883
0.0105594
0.00581066
0.0113908
0.0288352
0.0453104
0.0528536
0.0517261
0.0486228
0.0573954
0.0813856
0.109914
0.131116
0.13839
0.128857
0.11203
0.0958604
0.0804294
0.0675469
0.052008
0.0310488
0.00832237
-0.0147885
-0.0326655
-0.0405623
-0.0391936
-0.0278386
-0.00969457
-0.0102751
-0.0291909
-0.0416033
-0.0443661
-0.0380171
-0.022751
-0.00322334
0.0145394
0.0294182
0.0387545
0.0462436
0.0582477
0.0730293
0.0895351
0.0998811
0.0950459
0.0781285
0.0573966
0.0428066
0.0426128
0.0516175
0.0544708
0.0488557
0.0368804
0.0257807
0.0259446
0.0342917
0.0434944
0.050302
0.0562149
0.0583717
0.057099
0.0511153
0.0429472
0.0363811
0.0308591
0.0260947
0.025433
0.0300652
0.0314106
0.0254066
0.0181734
0.0200839
0.0267747
0.026354
0.0189197
0.0187988
0.0260914
0.0262214
0.0185355
0.0185354
0.0262214
0.0260917
0.0187989
0.0189196
0.026354
0.0267751
0.0200843
0.0181737
0.0254069
0.031411
0.0300654
0.025433
0.0260953
0.0308602
0.036382
0.0429475
0.0511152
0.0570985
0.058371
0.0562143
0.0503019
0.0434946
0.0342917
0.025944
0.0257799
0.0368798
0.0488552
0.0544705
0.0516172
0.0426118
0.0428052
0.0573955
0.0781277
0.0950453
0.0998808
0.0895347
0.0730289
0.0582476
0.0462437
0.038755
0.0294189
0.01454
-0.0032228
-0.0227507
-0.038017
-0.044366
-0.0416033
-0.0291909
-0.0102751
-0.0125258
-0.0349542
-0.0504062
-0.0555471
-0.0505541
-0.0375845
-0.0207649
-0.00614057
0.0051171
0.0123383
0.0191891
0.0316878
0.0482284
0.0658087
0.0771064
0.0748042
0.0619071
0.0486239
0.0426128
0.0482518
0.0595148
0.0613417
0.0548542
0.0447938
0.0384396
0.0432429
0.053999
0.0618191
0.0659165
0.0720294
0.0761826
0.076865
0.0721988
0.0642018
0.053833
0.0420435
0.032741
0.0310001
0.0343632
0.0325392
0.0244288
0.017286
0.017845
0.0208708
0.0188701
0.0128758
0.012998
0.0181526
0.0174777
0.0109856
0.0109855
0.0174776
0.0181529
0.0129983
0.0128756
0.0188699
0.0208713
0.0178457
0.0172864
0.0244289
0.0325395
0.0343637
0.0310006
0.0327417
0.0420446
0.0538339
0.0642019
0.0721982
0.0768644
0.076182
0.0720289
0.0659163
0.0618194
0.0539991
0.0432424
0.0384388
0.0447934
0.0548541
0.0613417
0.0595149
0.0482514
0.0426118
0.0486228
0.0619063
0.0748037
0.0771062
0.0658085
0.048228
0.0316875
0.0191888
0.0123383
0.00511738
-0.00614021
-0.0207645
-0.0375843
-0.0505541
-0.0555472
-0.0504064
-0.0349543
-0.0125259
-0.0147389
-0.0411266
-0.060099
-0.0677888
-0.0642765
-0.0525313
-0.0359842
-0.021415
-0.0102581
-0.0016382
0.00703203
0.0213055
0.0401725
0.0584853
0.0701506
0.0696128
0.0594066
0.0517267
0.0516175
0.0595148
0.0693456
0.0669438
0.0554371
0.0433116
0.0386587
0.0449082
0.0554099
0.0606485
0.062034
0.067315
0.0721393
0.0746244
0.0729659
0.0670412
0.054349
0.0383704
0.026348
0.0236579
0.024928
0.0209454
0.0129575
0.00743233
0.00676188
0.00639518
0.00368478
7.42044e-05
0.000596392
0.00350556
0.00246037
-0.00206561
-0.00206573
0.00246026
0.00350573
0.000596651
7.42132e-05
0.00368472
0.00639551
0.00676257
0.00743275
0.0129574
0.0209454
0.0249285
0.0236586
0.0263485
0.0383708
0.0543493
0.0670407
0.0729645
0.074623
0.0721384
0.0673145
0.0620335
0.0606484
0.05541
0.044908
0.0386584
0.0433117
0.0554377
0.0669445
0.0693462
0.0595149
0.0516172
0.0517261
0.0594061
0.0696126
0.0701506
0.0584851
0.0401723
0.0213052
0.00703179
-0.00163828
-0.010258
-0.0214149
-0.0359841
-0.0525315
-0.0642768
-0.0677893
-0.0600994
-0.041127
-0.014739
-0.0154055
-0.0429898
-0.0626777
-0.0703506
-0.0664944
-0.0543504
-0.037198
-0.0221484
-0.0103703
-0.000221885
0.00995258
0.025572
0.0457246
0.0627995
0.072181
0.0701343
0.0590158
0.052854
0.0544708
0.0613417
0.0669438
0.0579235
0.0393215
0.0240258
0.0205411
0.027602
0.0386655
0.0440012
0.0454674
0.0511899
0.0579915
0.0644021
0.0678834
0.0657383
0.0531311
0.0360697
0.0228722
0.0185078
0.0167613
0.0110682
0.00367022
-0.000372973
-0.00218574
-0.00542886
-0.00898937
-0.0108439
-0.0101561
-0.00918556
-0.0103772
-0.0129309
-0.0129309
-0.0103772
-0.00918555
-0.010156
-0.0108437
-0.00898919
-0.00542864
-0.00218531
-0.000372568
0.00367024
0.0110681
0.0167616
0.0185085
0.0228726
0.0360694
0.0531305
0.0657371
0.0678816
0.0644003
0.0579903
0.0511894
0.045467
0.0440009
0.0386654
0.027602
0.0205412
0.0240261
0.0393222
0.0579246
0.0669445
0.0613417
0.0544704
0.0528536
0.0590155
0.0701345
0.0721814
0.0627998
0.0457249
0.0255721
0.00995269
-0.000221619
-0.0103701
-0.0221484
-0.0371981
-0.0543509
-0.0664951
-0.0703515
-0.0626785
-0.0429904
-0.0154057
-0.0130923
-0.0358374
-0.0509705
-0.0549624
-0.0481872
-0.0347974
-0.0184365
-0.00539115
0.00338193
0.0109096
0.0192519
0.0329128
0.0508392
0.0638022
0.0684795
0.0630261
0.0502083
0.045311
0.0488557
0.0548542
0.0554371
0.0393215
0.0137863
-0.00503559
-0.0087804
-0.00211919
0.00976143
0.0167051
0.0199738
0.0278858
0.0392577
0.0521344
0.062726
0.0670071
0.0590248
0.0454081
0.0335344
0.0285342
0.0250092
0.018611
0.0116621
0.00899945
0.00722787
0.00228909
-0.00260288
-0.00382846
-0.00308771
-0.0034474
-0.0047085
-0.00568105
-0.00568096
-0.00470841
-0.00344745
-0.00308761
-0.00382794
-0.00260225
0.00228939
0.00722804
0.00899982
0.0116625
0.0186111
0.0250095
0.0285348
0.0335347
0.0454074
0.0590232
0.0670053
0.062724
0.0521326
0.0392564
0.0278851
0.0199735
0.0167049
0.00976132
-0.00211911
-0.00878005
-0.0050352
0.0137868
0.0393222
0.0554377
0.0548542
0.0488552
0.0453104
0.050208
0.0630265
0.0684803
0.063803
0.05084
0.0329134
0.0192524
0.0109101
0.00338235
-0.00539086
-0.0184364
-0.0347977
-0.0481878
-0.0549633
-0.0509714
-0.0358381
-0.0130926
-0.00826477
-0.0213488
-0.0280704
-0.0259746
-0.0152797
-0.00137142
0.0124252
0.021414
0.0241237
0.0252997
0.0277925
0.0347749
0.0461895
0.052387
0.051048
0.0425766
0.0301774
0.028836
0.0368804
0.0447938
0.0433116
0.0240258
-0.00503559
-0.0260826
-0.0303964
-0.0245732
-0.0127601
-0.00502897
-0.000127844
0.0101661
0.0261144
0.0443415
0.0610016
0.0722102
0.0710134
0.0623686
0.0525333
0.0476684
0.0430518
0.0351624
0.0268838
0.0248104
0.0236969
0.0174065
0.0101754
0.00836313
0.00877473
0.00717866
0.00563333
0.00588405
0.0058842
0.00563355
0.00717867
0.00877486
0.00836378
0.0101763
0.0174069
0.0236968
0.0248106
0.0268844
0.0351628
0.0430519
0.0476683
0.052533
0.0623675
0.0710113
0.0722078
0.0609996
0.0443401
0.0261136
0.0101657
-0.000127914
-0.00502873
-0.0127598
-0.0245727
-0.0303958
-0.0260821
-0.00503518
0.0240261
0.0433117
0.0447934
0.0368798
0.0288352
0.0301768
0.0425769
0.0510487
0.0523879
0.0461905
0.0347757
0.0277932
0.0253003
0.0241243
0.0214145
0.0124255
-0.00137141
-0.0152799
-0.025975
-0.0280709
-0.0213491
-0.00826494
-0.00390036
-0.0083667
-0.00750495
0.000194058
0.0144955
0.0289117
0.0401126
0.044714
0.0409739
0.0356083
0.0319782
0.0318577
0.0366675
0.0363426
0.0290479
0.0181478
0.00775097
0.0113916
0.0257807
0.0384396
0.0386587
0.0205411
-0.0087804
-0.0303964
-0.034995
-0.0310144
-0.0218219
-0.0156975
-0.0107547
-2.90469e-05
0.0176527
0.0379436
0.0583129
0.0753137
0.0805301
0.0765455
0.0694565
0.0660274
0.0606513
0.0499886
0.0390369
0.0370189
0.0363733
0.0283124
0.018263
0.0154512
0.0149731
0.0114973
0.00933051
0.0108204
0.0108205
0.00933078
0.0114975
0.0149733
0.0154517
0.0182638
0.0283128
0.0363733
0.0370188
0.0390372
0.049989
0.0606512
0.0660265
0.0694552
0.0765438
0.0805278
0.0753113
0.0583112
0.037943
0.0176527
-2.86964e-05
-0.0107541
-0.0156966
-0.0218208
-0.0310133
-0.034994
-0.0303958
-0.00878003
0.0205412
0.0386584
0.0384389
0.0257799
0.0113908
0.00775044
0.018148
0.0290485
0.0363434
0.0366683
0.0318582
0.0319787
0.0356087
0.0409744
0.0447145
0.040113
0.028912
0.0144957
0.000194016
-0.00750503
-0.00836677
-0.00390043
-0.00210662
-0.00317274
0.000774447
0.0106903
0.0262102
0.0406048
0.0504244
0.0531355
0.0467267
0.038966
0.0333517
0.0304574
0.0322494
0.0281909
0.0173027
0.00562715
-0.0021497
0.00581113
0.0259446
0.0432429
0.0449082
0.027602
-0.00211919
-0.0245732
-0.0310144
-0.0315776
-0.0282073
-0.0261485
-0.0231893
-0.0143925
0.00269416
0.0232616
0.046221
0.068063
0.079362
0.0810673
0.0794809
0.0801012
0.075174
0.0623682
0.0498309
0.0483434
0.0475341
0.0373581
0.0253084
0.0222211
0.0203639
0.0140218
0.0109286
0.0139259
0.013926
0.0109289
0.0140223
0.0203644
0.0222214
0.0253088
0.0373585
0.0475342
0.0483431
0.0498307
0.0623682
0.0751737
0.0800998
0.0794788
0.0810651
0.0793599
0.0680611
0.0462199
0.0232616
0.00269492
-0.0143915
-0.0231882
-0.0261473
-0.028206
-0.0315762
-0.0310133
-0.0245728
-0.00211911
0.027602
0.044908
0.0432425
0.025944
0.00581067
-0.00214985
0.00562751
0.0173033
0.0281916
0.0322499
0.0304573
0.0333516
0.0389659
0.0467267
0.0531358
0.0504247
0.0406052
0.0262105
0.0106905
0.000774608
-0.00317262
-0.00210662
-0.0037157
-0.00786818
-0.00600586
0.0027388
0.0179303
0.0328326
0.0433482
0.0478524
0.0442197
0.0398994
0.0379211
0.037203
0.039095
0.033219
0.019572
0.00652143
0.0001009
0.0105596
0.0342917
0.053999
0.0554099
0.0386655
0.00976143
-0.0127601
-0.0218219
-0.0282073
-0.0325067
-0.0369339
-0.0389471
-0.0350398
-0.0213768
-0.00322492
0.0194436
0.0431397
0.0588674
0.0667866
0.0728135
0.0791486
0.076176
0.0637196
0.052575
0.0526556
0.0512337
0.0394401
0.0274378
0.0256357
0.0225406
0.0129285
0.00881134
0.0134067
0.0134067
0.00881167
0.0129291
0.0225411
0.0256357
0.0274376
0.0394402
0.0512338
0.0526551
0.0525741
0.0637187
0.076175
0.0791468
0.0728108
0.066784
0.0588654
0.0431385
0.0194433
-0.0032243
-0.0213756
-0.0350385
-0.0389457
-0.0369324
-0.0325053
-0.028206
-0.0218208
-0.0127598
0.00976132
0.0386654
0.05541
0.0539991
0.0342917
0.0105594
0.000100908
0.00652178
0.0195724
0.0332194
0.0390951
0.0372026
0.0379206
0.0398989
0.0442193
0.0478524
0.0433483
0.0328328
0.0179304
0.00273881
-0.00600589
-0.00786823
-0.00371576
-0.00610039
-0.0149276
-0.0169499
-0.0112817
0.00219844
0.0172746
0.029354
0.0375537
0.0390992
0.0406597
0.0450042
0.0489976
0.0527777
0.0467795
0.0312902
0.0162166
0.00957134
0.0198831
0.0434944
0.0618191
0.0606485
0.0440012
0.0167051
-0.00502897
-0.0156975
-0.0261485
-0.0369339
-0.0473399
-0.0538571
-0.0543817
-0.044435
-0.0296191
-0.00891595
0.0144421
0.0331787
0.0472661
0.0613911
0.0736787
0.0738961
0.0645095
0.0572427
0.0591564
0.0565032
0.0435435
0.032881
0.0330437
0.0289478
0.0162384
0.0108026
0.0163254
0.0163255
0.010803
0.0162389
0.0289481
0.0330434
0.0328804
0.0435431
0.0565031
0.0591558
0.0572413
0.0645078
0.0738945
0.0736768
0.0613886
0.0472638
0.0331774
0.0144419
-0.00891534
-0.0296178
-0.0444334
-0.0543802
-0.0538557
-0.0473384
-0.0369324
-0.0261473
-0.0156966
-0.00502872
0.0167049
0.0440009
0.0606484
0.0618194
0.0434946
0.019883
0.00957121
0.0162167
0.0312903
0.0467796
0.0527777
0.0489973
0.0450038
0.0406592
0.0390989
0.0375537
0.029354
0.0172746
0.00219831
-0.011282
-0.0169502
-0.0149278
-0.00610053
-0.0066475
-0.0167862
-0.0198623
-0.0152579
-0.00310478
0.0108123
0.0218261
0.0303307
0.0339851
0.0389539
0.0478409
0.0558121
0.0615755
0.0564254
0.0404038
0.0246653
0.0188763
0.0285797
0.050302
0.0659165
0.062034
0.0454674
0.0199738
-0.000127844
-0.0107547
-0.0231893
-0.0389471
-0.0538571
-0.0635724
-0.0678853
-0.0618618
-0.0507811
-0.0332362
-0.0124331
0.00728141
0.0260912
0.0471099
0.064653
0.0691525
0.0650905
0.0634433
0.0677415
0.0645768
0.051673
0.0431203
0.0454404
0.0412621
0.0267768
0.0200629
0.0255063