# y+ ()       
# Time        	patch         	min           	max           	average       
500           	pipe	1.033804e+00	2.107753e+00	1.552958e+00
