/*--------------------------------*- C++ -*----------------------------------*\
  =========                 |
  \\      /  F ield         | OpenFOAM: The Open Source CFD Toolbox
   \\    /   O peration     | Website:  https://openfoam.org
    \\  /    A nd           | Version:  dev
     \\/     M anipulation  |
\*---------------------------------------------------------------------------*/
FoamFile
{
    format      ascii;
    class       volScalarField;
    location    "80";
    object      h;
}
// * * * * * * * * * * * * * * * * * * * * * * * * * * * * * * * * * * * * * //

dimensions      [0 1 0 0 0 0 0];

internalField   nonuniform List<scalar> 
10000
(
-0.000309177
-0.000593617
-0.000143042
0.000610468
0.000966842
0.000977291
0.00160283
0.00336191
0.00531196
0.00636571
0.00656452
0.00666958
0.00658636
0.00594583
0.00484341
0.00300542
-0.00041332
-0.00540513
-0.00969085
-0.0113437
-0.0110932
-0.0108552
-0.0112765
-0.0118371
-0.0116632
-0.00985115
-0.00597842
-0.000942081
0.00321789
0.00579118
0.00705386
0.00739714
0.00737974
0.00726476
0.00674838
0.00557108
0.00342352
0.00058369
-0.00216814
-0.00453313
-0.00611526
-0.00650383
-0.00599243
-0.00489081
-0.00319653
-0.00128568
0.000551579
0.00225969
0.00357832
0.00423172
0.00423184
0.00357864
0.00226014
0.000552041
-0.00128533
-0.00319639
-0.00489096
-0.00599287
-0.00650448
-0.006116
-0.00453379
-0.00216857
0.000583601
0.00342381
0.00557169
0.00674918
0.00726563
0.00738053
0.00739778
0.00705431
0.00579144
0.00321799
-0.000942114
-0.0059786
-0.00985143
-0.0116636
-0.0118376
-0.0112771
-0.0108558
-0.0110938
-0.0113442
-0.00969121
-0.00540518
-0.000413108
0.00300577
0.00484381
0.00594625
0.00658677
0.00666989
0.00656472
0.00636583
0.00531199
0.00336183
0.0016027
0.000977175
0.000966759
0.000610384
-0.000143132
-0.000593682
-0.000309195
-0.000593617
-0.000806703
0.00107157
0.00375557
0.00518894
0.00549474
0.00745631
0.0125364
0.0180064
0.0207268
0.0208338
0.020558
0.0197101
0.0172742
0.0135071
0.00761185
-0.00285305
-0.0177431
-0.0304358
-0.0353998
-0.0348068
-0.0343181
-0.0358866
-0.0379792
-0.0378709
-0.0327666
-0.0213729
-0.0063551
0.00630729
0.0144047
0.0186621
0.020243
0.0207725
0.0210224
0.0200618
0.0170861
0.0111877
0.00317647
-0.00467491
-0.0113911
-0.0157845
-0.016657
-0.0148548
-0.0113215
-0.0061365
-0.000446791
0.00486559
0.00967621
0.0133233
0.0150974
0.0150977
0.013324
0.00967724
0.00486662
-0.000446046
-0.00613629
-0.011322
-0.0148559
-0.0166586
-0.0157862
-0.0113926
-0.0046759
0.00317628
0.0111884
0.0170876
0.0200638
0.0210246
0.0207746
0.0202448
0.0186634
0.0144055
0.00630768
-0.00635519
-0.0213735
-0.0327675
-0.0378721
-0.0379807
-0.0358883
-0.03432
-0.0348087
-0.0354016
-0.030437
-0.0177435
-0.00285255
0.0076128
0.0135083
0.0172755
0.0197114
0.0205591
0.0208347
0.0207274
0.0180067
0.0125363
0.00745605
0.00549447
0.00518872
0.00375532
0.00107129
-0.000806908
-0.000593681
-0.000143042
0.00107157
0.00537123
0.0106376
0.0136004
0.0144551
0.0175624
0.0251321
0.0329836
0.0362626
0.0352403
0.0334523
0.0308256
0.0259874
0.0192605
0.00931091
-0.00766544
-0.0312128
-0.0510989
-0.0589279
-0.0582324
-0.0580422
-0.0615193
-0.0661457
-0.0671796
-0.0598067
-0.0418975
-0.0177626
0.00320516
0.0171905
0.0251273
0.0288712
0.0309457
0.0325742
0.0322455
0.0285675
0.0201063
0.0081013
-0.00389289
-0.0140635
-0.0204351
-0.0211021
-0.0173829
-0.0109498
-0.00222912
0.00684738
0.0148281
0.0216681
0.026642
0.0289439
0.0289442
0.0266426
0.021669
0.0148289
0.00684784
-0.00222921
-0.0109505
-0.0173841
-0.0211037
-0.0204368
-0.014065
-0.00389374
0.00810124
0.0201072
0.0285692
0.0322478
0.0325768
0.0309484
0.0288737
0.0251295
0.0171921
0.00320598
-0.0177627
-0.0418986
-0.0598085
-0.0671819
-0.0661484
-0.0615223
-0.0580453
-0.0582356
-0.0589308
-0.051101
-0.0312135
-0.00766485
0.00931231
0.0192624
0.0259896
0.0308278
0.0334543
0.035242
0.036264
0.0329845
0.0251323
0.0175622
0.0144548
0.0136001
0.0106373
0.00537087
0.00107129
-0.000143131
0.000610468
0.00375557
0.0106376
0.0184224
0.0228963
0.0243276
0.0282292
0.0372071
0.0460589
0.0487225
0.0456603
0.0414448
0.0364278
0.0292972
0.0203037
0.00753766
-0.0138364
-0.0428457
-0.0667691
-0.075492
-0.0738367
-0.0736225
-0.0791111
-0.0869124
-0.0901151
-0.0817928
-0.0591286
-0.0279563
-0.000294697
0.0184253
0.0291726
0.034524
0.0377905
0.0406347
0.0410486
0.0369853
0.026605
0.0114646
-0.00390307
-0.0166926
-0.0242397
-0.0241426
-0.0181438
-0.00878264
0.0028496
0.0141101
0.0231023
0.0301119
0.0348112
0.0367301
0.0367302
0.0348113
0.030112
0.0231022
0.0141097
0.0028489
-0.00878359
-0.0181449
-0.0241437
-0.0242406
-0.0166931
-0.00390317
0.011465
0.0266058
0.0369867
0.0410505
0.040637
0.0377932
0.0345269
0.0291755
0.0184277
-0.000293228
-0.0279561
-0.0591298
-0.0817951
-0.0901182
-0.0869159
-0.0791149
-0.0736264
-0.0738406
-0.0754956
-0.0667718
-0.0428469
-0.013836
0.00753914
0.0203058
0.0292997
0.0364306
0.0414475
0.0456626
0.0487245
0.0460603
0.0372077
0.0282292
0.0243275
0.0228962
0.0184221
0.0106373
0.00375532
0.000610384
0.000966842
0.00518894
0.0136004
0.0228963
0.0283329
0.0302931
0.0349042
0.0446809
0.0538136
0.0555948
0.0506346
0.0441007
0.0369977
0.0284535
0.0184869
0.00454517
-0.0188291
-0.0498466
-0.0745036
-0.0821826
-0.0787204
-0.0778774
-0.084894
-0.0958209
-0.101696
-0.0936424
-0.0684553
-0.0333005
-0.00182303
0.0191229
0.0304713
0.0356851
0.0388418
0.0420275
0.042801
0.0384305
0.026823
0.00969255
-0.00783671
-0.0219049
-0.0294145
-0.0278961
-0.0195289
-0.00775146
0.00556416
0.0173453
0.0255181
0.0309324
0.0339906
0.034804
0.0348037
0.0339899
0.0309315
0.0255169
0.017344
0.00556295
-0.00775249
-0.0195297
-0.0278964
-0.0294145
-0.0219044
-0.00783596
0.0096935
0.0268241
0.0384317
0.0428024
0.0420292
0.038844
0.0356877
0.0304742
0.0191256
-0.00182109
-0.0332999
-0.0684563
-0.0936449
-0.101699
-0.0958245
-0.0848978
-0.0778811
-0.0787243
-0.0821863
-0.0745065
-0.0498481
-0.018829
0.00454638
0.0184887
0.0284557
0.0370003
0.0441034
0.0506372
0.0555971
0.0538153
0.0446818
0.0349045
0.0302931
0.0283329
0.0228961
0.0136001
0.00518871
0.000966759
0.000977291
0.00549474
0.0144551
0.0243276
0.0302931
0.0329624
0.0384982
0.0488429
0.0579869
0.0591657
0.0530396
0.0447607
0.0359911
0.0265688
0.0161354
0.00144158
-0.0230113
-0.0542563
-0.0780393
-0.0842493
-0.0792652
-0.077669
-0.0855034
-0.0987424
-0.106899
-0.0996247
-0.0738045
-0.0376699
-0.00531594
0.0155001
0.0257448
0.029819
0.032432
0.0359296
0.0375079
0.0337502
0.0225159
0.00554245
-0.0118803
-0.0250468
-0.0308271
-0.0271482
-0.0165474
-0.00316142
0.0105503
0.0215911
0.0280612
0.0314005
0.0326674
0.032395
0.0323946
0.0326663
0.0313989
0.0280595
0.0215896
0.0105491
-0.00316226
-0.0165477
-0.0271481
-0.0308266
-0.0250459
-0.011879
0.00554396
0.0225176
0.0337518
0.0375094
0.035931
0.0324335
0.0298207
0.0257469
0.0155022
-0.00531429
-0.0376694
-0.0738054
-0.099627
-0.106902
-0.0987457
-0.0855066
-0.0776722
-0.0792685
-0.0842526
-0.0780421
-0.0542579
-0.0230115
0.00144233
0.0161367
0.0265704
0.0359932
0.0447632
0.0530422
0.0591681
0.0579889
0.0488442
0.0384988
0.0329627
0.0302931
0.0243275
0.0144548
0.00549447
0.000977176
0.00160283
0.00745631
0.0175624
0.0282292
0.0349042
0.0384982
0.0446627
0.0544258
0.0620515
0.0615227
0.0536522
0.043077
0.0320951
0.0214226
0.0102602
-0.00536064
-0.0304591
-0.0606411
-0.0822722
-0.0865977
-0.0801076
-0.0771186
-0.0844317
-0.0985923
-0.108306
-0.102249
-0.0776199
-0.0432001
-0.0123603
0.00684042
0.0153753
0.018403
0.0210272
0.0255873
0.028945
0.0270516
0.0179098
0.00317102
-0.012115
-0.0227002
-0.0257217
-0.0198013
-0.00758808
0.00655591
0.019974
0.0301763
0.0356011
0.0379809
0.0386057
0.0380034
0.0380031
0.0386047
0.0379796
0.0355997
0.0301751
0.0199732
0.00655545
-0.00758822
-0.0198012
-0.0257212
-0.0226993
-0.0121137
0.00317284
0.017912
0.0270537
0.0289469
0.0255886
0.0210281
0.0184037
0.0153761
0.00684127
-0.0123597
-0.0432001
-0.0776209
-0.102251
-0.108309
-0.0985948
-0.0844341
-0.077121
-0.0801102
-0.0866006
-0.0822749
-0.0606429
-0.0304598
-0.00536051
0.0102607
0.0214235
0.0320967
0.0430792
0.0536548
0.0615253
0.0620539
0.0544276
0.0446638
0.0384989
0.0349045
0.0282292
0.0175622
0.00745605
0.0016027
0.00336191
0.0125364
0.0251321
0.0372071
0.0446809
0.0488429
0.0544258
0.0614041
0.0648707
0.0604638
0.0494284
0.035585
0.0217823
0.00971477
-0.00175141
-0.0172856
-0.0411166
-0.0675526
-0.0845269
-0.0855026
-0.0768416
-0.0716869
-0.0774939
-0.0918454
-0.103298
-0.0998816
-0.0789437
-0.0490123
-0.021719
-0.00491043
0.00208897
0.00469248
0.00804041
0.0141681
0.0197344
0.0202355
0.0139194
0.00216466
-0.0105526
-0.0186672
-0.019484
-0.012205
0.0008578
0.0156097
0.0293597
0.0400769
0.04635
0.0496977
0.0512219
0.051187
0.0511869
0.0512216
0.0496974
0.0463497
0.0400767
0.0293595
0.0156096
0.000857876
-0.0122048
-0.0194836
-0.0186665
-0.0105514
0.00216644
0.0139216
0.0202379
0.0197365
0.0141695
0.00804102
0.00469244
0.00208859
-0.00491088
-0.0217195
-0.049013
-0.0789448
-0.0998831
-0.1033
-0.0918469
-0.0774953
-0.0716884
-0.0768436
-0.0855051
-0.0845295
-0.0675548
-0.0411178
-0.0172861
-0.00175157
0.00971497
0.0217832
0.0355867
0.0494307
0.0604664
0.0648734
0.0614064
0.0544276
0.0488442
0.0446818
0.0372077
0.0251323
0.0125363
0.00336183
0.00531196
0.0180064
0.0329836
0.0460589
0.0538136
0.0579869
0.0620515
0.0648707
0.0627243
0.0535674
0.0393033
0.022634
0.00668475
-0.00590902
-0.016399
-0.0299709
-0.0498281
-0.0694185
-0.0790591
-0.0751146
-0.0638332
-0.056518
-0.0610475
-0.0761536
-0.0906264
-0.0918951
-0.0770439
-0.0536926
-0.0312914
-0.0172866
-0.0117331
-0.00958508
-0.00590798
0.000969688
0.00784381
0.00991029
0.00558782
-0.00414388
-0.015523
-0.0227708
-0.0229087
-0.0152444
-0.00132751
0.0152071
0.0313038
0.0448412
0.0541484
0.0600855
0.0634632
0.0644687
0.0644689
0.0634638
0.0600863
0.0541492
0.0448418
0.0313042
0.0152074
-0.0013272
-0.015244
-0.0229081
-0.02277
-0.0155219
-0.00414246
0.00558953
0.00991213
0.00784546
0.000970779
-0.00590765
-0.00958549
-0.0117341
-0.0172877
-0.0312926
-0.0536936
-0.0770449
-0.0918961
-0.0906272
-0.076154
-0.0610477
-0.0565185
-0.0638344
-0.0751165
-0.0790615
-0.0694208
-0.0498297
-0.0299719
-0.0163999
-0.00590962
0.00668474
0.0226348
0.0393049
0.0535696
0.0627269
0.0648734
0.0620539
0.0579889
0.0538153
0.0460603
0.0329845
0.0180067
0.00531199
0.00636571
0.0207268
0.0362626
0.0487225
0.0555948
0.0591657
0.0615227
0.0604638
0.0535674
0.0413405
0.0262442
0.00940873
-0.00633076
-0.0177399
-0.025939
-0.0362609
-0.0507962
-0.0626678
-0.0650439
-0.0573462
-0.045431
-0.0380284
-0.042897
-0.0597177
-0.0778427
-0.0844019
-0.0759708
-0.0589747
-0.0408809
-0.0289517
-0.0244841
-0.0232109
-0.0203203
-0.0142726
-0.00772212
-0.00552348
-0.00920068
-0.0182049
-0.0294472
-0.0368366
-0.0365985
-0.0278881
-0.0115668
0.00901019
0.0299179
0.0483794
0.0622349
0.0715298
0.0769753
0.0790881
0.0790885
0.0769763
0.0715311
0.0622363
0.0483807
0.0299189
0.00901095
-0.0115661
-0.0278874
-0.0365977
-0.0368356
-0.0294461
-0.0182038
-0.00919973
-0.0055227
-0.00772161
-0.0142724
-0.0203206
-0.0232116
-0.0244852
-0.0289529
-0.0408822
-0.058976
-0.0759719
-0.0844026
-0.0778429
-0.0597172
-0.0428961
-0.0380278
-0.045431
-0.0573472
-0.0650457
-0.0626699
-0.0507979
-0.0362623
-0.0259403
-0.0177412
-0.0063316
0.00940859
0.0262448
0.0413419
0.0535696
0.0604664
0.0615253
0.0591681
0.055597
0.0487245
0.036264
0.0207274
0.00636583
0.00656452
0.0208338
0.0352403
0.0456603
0.0506346
0.0530396
0.0536522
0.0494284
0.0393033
0.0262442
0.0130104
-0.00120978
-0.0145774
-0.0237274
-0.0293996
-0.0365714
-0.0461869
-0.0516564
-0.0491383
-0.0407268
-0.0313016
-0.0263384
-0.032637
-0.0504078
-0.0700349
-0.0791377
-0.0741436
-0.0605834
-0.044619
-0.0334713
-0.0297492
-0.029987
-0.0293637
-0.0262138
-0.0222485
-0.0220224
-0.0269124
-0.0364168
-0.0477651
-0.0546159
-0.0524319
-0.0405232
-0.0196149
0.00682558
0.0337207
0.0575917
0.076111
0.0886663
0.0960356
0.0992409
0.0992412
0.0960364
0.0886676
0.0761126
0.0575934
0.0337222
0.0068269
-0.0196138
-0.0405222
-0.0524309
-0.0546148
-0.047764
-0.0364159
-0.0269118
-0.0220224
-0.0222491
-0.0262148
-0.029365
-0.0299883
-0.0297504
-0.0334723
-0.0446201
-0.0605846
-0.0741447
-0.0791385
-0.070035
-0.0504069
-0.0326354
-0.0263368
-0.0313006
-0.0407269
-0.0491395
-0.0516582
-0.0461887
-0.036573
-0.0294013
-0.0237291
-0.0145787
-0.00121058
0.0130103
0.0262448
0.0393049
0.0494307
0.0536548
0.0530422
0.0506372
0.0456626
0.035242
0.0208347
0.00656472
0.00666958
0.020558
0.0334523
0.0414448
0.0441007
0.0447607
0.043077
0.035585
0.022634
0.00940873
-0.00120978
-0.0119483
-0.0223373
-0.0291688
-0.0325454
-0.0365924
-0.0413091
-0.041314
-0.0357957
-0.0287961
-0.0235144
-0.0216993
-0.0284919
-0.044446
-0.0617553
-0.069657
-0.064957
-0.0524479
-0.037416
-0.0269004
-0.0245278
-0.0275294
-0.0310965
-0.0333061
-0.0346653
-0.038983
-0.0471489
-0.0580859
-0.0689683
-0.073538
-0.0670669
-0.0497229
-0.0228572
0.00969419
0.0419194
0.0701255
0.0923966
0.10767
0.116767
0.121103
0.121103
0.116768
0.10767
0.0923979
0.0701271
0.0419212
0.0096959
-0.0228557
-0.0497218
-0.067066
-0.0735371
-0.0689674
-0.0580851
-0.0471484
-0.0389832
-0.0346663
-0.0333078
-0.0310986
-0.0275313
-0.0245293
-0.0269014
-0.0374167
-0.0524486
-0.0649577
-0.0696576
-0.0617554
-0.0444452
-0.0284902
-0.0216972
-0.0235126
-0.0287952
-0.0357959
-0.0413153
-0.0413109
-0.0365943
-0.0325474
-0.0291707
-0.0223389
-0.0119496
-0.00121058
0.00940859
0.0226348
0.0355867
0.0430792
0.0447632
0.0441034
0.0414475
0.0334543
0.0205591
0.00666989
0.00658636
0.0197101
0.0308256
0.0364278
0.0369977
0.0359911
0.0320951
0.0217823
0.00668475
-0.00633076
-0.0145774
-0.0223373
-0.0304538
-0.0359344
-0.0378637
-0.0389498
-0.0385485
-0.0333969
-0.0257157
-0.0207296
-0.0193428
-0.0196273
-0.0248396
-0.0360279
-0.0480332
-0.0528185
-0.0478279
-0.0366535
-0.0235159
-0.0147787
-0.0147346
-0.0213716
-0.0302919
-0.0394356
-0.0480396
-0.0585445
-0.0709336
-0.0832181
-0.0925431
-0.0933184
-0.0813205
-0.0579905
-0.0255554
0.0119708
0.0481406
0.0794212
0.104538
0.121992
0.13257
0.137978
0.137978
0.13257
0.121993
0.104539
0.0794225
0.0481422
0.0119725
-0.025554
-0.0579894
-0.0813198
-0.093318
-0.0925427
-0.0832177
-0.0709332
-0.0585445
-0.0480402
-0.0394371
-0.030294
-0.0213739
-0.0147365
-0.0147798
-0.0235162
-0.0366535
-0.0478279
-0.0528186
-0.0480332
-0.0360273
-0.0248383
-0.0196253
-0.0193407
-0.0207279
-0.025715
-0.0333973
-0.0385498
-0.0389516
-0.0378657
-0.0359364
-0.0304557
-0.0223389
-0.0145787
-0.0063316
0.00668473
0.0217832
0.0320967
0.0359932
0.0370003
0.0364306
0.0308278
0.0197114
0.00658676
0.00594583
0.0172742
0.0259874
0.0292972
0.0284535
0.0265688
0.0214226
0.00971477
-0.00590902
-0.0177399
-0.0237274
-0.0291688
-0.0359344
-0.0411741
-0.0427451
-0.0415805
-0.0365632
-0.0272058
-0.0184723
-0.01579
-0.0173391
-0.0181711
-0.0200552
-0.0250405
-0.0312812
-0.0339188
-0.030676
-0.0229016
-0.0132948
-0.00715496
-0.00935331
-0.0190504
-0.0329092
-0.0488168
-0.0645293
-0.0805968
-0.0960928
-0.108404
-0.11501
-0.11167
-0.0950526
-0.0674401
-0.0313139
0.0096221
0.0488396
0.0828313
0.11064
0.130138
0.142009
0.148316
0.148317
0.142009
0.130138
0.11064
0.0828321
0.0488405
0.0096232
-0.0313129
-0.0674393
-0.0950522
-0.11167
-0.115011
-0.108405
-0.096093
-0.0805969
-0.0645296
-0.0488175
-0.0329105
-0.0190522
-0.00935511
-0.00715617
-0.0132953
-0.0229015
-0.0306755
-0.0339185
-0.0312811
-0.0250403
-0.0200546
-0.0181697
-0.0173373
-0.015788
-0.0184707
-0.0272052
-0.0365637
-0.0415818
-0.0427469
-0.0411761
-0.0359364
-0.0291707
-0.0237291
-0.0177412
-0.00590963
0.00971497
0.0214235
0.0265704
0.0284557
0.0292997
0.0259896
0.0172756
0.00594625
0.00484341
0.0135071
0.0192605
0.0203037
0.0184869
0.0161354
0.0102602
-0.00175141
-0.016399
-0.025939
-0.0293996
-0.0325454
-0.0378637
-0.0427451
-0.0440515
-0.0410033
-0.0322168
-0.0203001
-0.0123622
-0.0129508
-0.0172192
-0.017957
-0.0161597
-0.015366
-0.0172046
-0.0198229
-0.0205234
-0.0172968
-0.0109957
-0.00607954
-0.0085015
-0.0192376
-0.0362672
-0.0571963
-0.0781241
-0.0975084
-0.113893
-0.124854
-0.128711
-0.122786
-0.104303
-0.0753938
-0.0380805
0.00455985
0.0461294
0.0828341
0.11352
0.13525
0.148506
0.155664
0.155664
0.148506
0.13525
0.11352
0.0828345
0.0461298
0.00456023
-0.0380801
-0.0753937
-0.104304
-0.122787
-0.128712
-0.124855
-0.113894
-0.0975088
-0.078124
-0.0571961
-0.0362673
-0.0192382
-0.00850259
-0.00608065
-0.0109964
-0.0172969
-0.020523
-0.0198224
-0.0172044
-0.015366
-0.0161597
-0.0179566
-0.0172181
-0.0129491
-0.0123602
-0.0202987
-0.0322164
-0.0410039
-0.0440529
-0.0427469
-0.0378657
-0.0325474
-0.0294013
-0.0259404
-0.0163999
-0.00175157
0.0102607
0.0161367
0.0184887
0.0203058
0.0192624
0.0135083
0.00484381
0.00300542
0.00761185
0.00931091
0.00753766
0.00454517
0.00144158
-0.00536064
-0.0172856
-0.0299709
-0.0362609
-0.0365714
-0.0365924
-0.0389498
-0.0415805
-0.0410033
-0.0351884
-0.0227358
-0.00918913
-0.00310236
-0.00732686
-0.0140804
-0.0148074
-0.0104283
-0.00594164
-0.00569718
-0.0100277
-0.015174
-0.0155636
-0.0107156
-0.00499064
-0.00580842
-0.0160667
-0.0347561
-0.0589264
-0.0832001
-0.104242
-0.120723
-0.131027
-0.134165
-0.128557
-0.111465
-0.0841665
-0.0479792
-0.00542651
0.0372905
0.0759565
0.109074
0.133045
0.147964
0.156124
0.156124
0.147964
0.133045
0.109074
0.0759567
0.0372905
-0.00542681
-0.0479798
-0.0841673
-0.111466
-0.128558
-0.134166
-0.131028
-0.120724
-0.104243
-0.0832002
-0.0589258
-0.0347552
-0.016066
-0.0058083
-0.00499107
-0.0107163
-0.0155641
-0.015174
-0.0100273
-0.00569672
-0.00594148
-0.0104285
-0.0148075
-0.0140802
-0.00732583
-0.00310062
-0.0091874
-0.0227347
-0.0351882
-0.0410039
-0.0415818
-0.0389516
-0.0365943
-0.036573
-0.0362623
-0.0299719
-0.0172861
-0.0053605
0.00144232
0.00454637
0.00753914
0.00931232
0.00761281
0.00300577
-0.00041332
-0.00285305
-0.00766544
-0.0138364
-0.0188291
-0.0230113
-0.0304591
-0.0411166
-0.0498281
-0.0507962
-0.0461869
-0.0413091
-0.0385485
-0.0365632
-0.0322168
-0.0227358
-0.00674016
0.00781183
0.0115026
0.00353099
-0.00586536
-0.00755077
-0.00261665
0.00302415
0.00339734
-0.00316675
-0.0117543
-0.0139289
-0.00868106
-0.000888184
0.000623143
-0.00859701
-0.0279854
-0.0539678
-0.0802079
-0.102254
-0.119406
-0.130925
-0.135858
-0.133021
-0.119393
-0.0952231
-0.0614589
-0.0204755
0.0217994
0.0609217
0.0952293
0.120815
0.137242
0.146327
0.146327
0.137242
0.120816
0.0952295
0.0609217
0.021799
-0.0204764
-0.0614603
-0.0952248
-0.119395
-0.133022
-0.13586
-0.130927
-0.119407
-0.102255
-0.0802084
-0.0539676
-0.0279844
-0.00859568
0.000624311
-0.000887633
-0.00868122
-0.0139294
-0.0117546
-0.00316657
0.00339785
0.00302462
-0.00261653
-0.00755102
-0.00586562
0.00353135
0.0115038
0.00781352
-0.00673864
-0.0227347
-0.0322164
-0.0365637
-0.0385498
-0.0413109
-0.0461887
-0.0507979
-0.0498297
-0.0411178
-0.0304598
-0.0230115
-0.018829
-0.013836
-0.00766485
-0.00285255
-0.000413109
-0.00540513
-0.0177431
-0.0312128
-0.0428457
-0.0498466
-0.0542563
-0.0606411
-0.0675526
-0.0694185
-0.0626678
-0.0516564
-0.041314
-0.0333969
-0.0272058
-0.0203001
-0.00918913
0.00781183
0.0213772
0.021859
0.0103378
-0.00138126
-0.00418543
0.000662538
0.00694761
0.00803649
0.00128016
-0.00783368
-0.00936661
-0.00233038
0.00787373
0.0116798
0.00370767
-0.015497
-0.0420148
-0.0693343
-0.0924267
-0.111057
-0.124896
-0.132629
-0.133209
-0.123511
-0.102979
-0.072568
-0.0345813
0.00560019
0.0435081
0.0772984
0.103048
0.119895
0.129222
0.129222
0.119895
0.103048
0.0772982
0.0435076
0.00559933
-0.0345826
-0.0725697
-0.102981
-0.123513
-0.13321
-0.13263
-0.124897
-0.111058
-0.0924274
-0.0693348
-0.0420149
-0.0154965
0.00370886
0.0116813
0.00787506
-0.00232972
-0.00936663
-0.00783404
0.00128002
0.00803673
0.00694809
0.00066293
-0.00418542
-0.00138151
0.0103378
0.0218597
0.0213785
0.00781351
-0.00918741
-0.0202987
-0.0272052
-0.0333973
-0.0413153
-0.0516582
-0.0626699
-0.0694208
-0.0675548
-0.0606429
-0.0542579
-0.0498481
-0.0428469
-0.0312135
-0.0177434
-0.00540518
-0.00969085
-0.0304358
-0.0510989
-0.0667691
-0.0745036
-0.0780393
-0.0822722
-0.0845269
-0.0790591
-0.0650439
-0.0491383
-0.0357957
-0.0257157
-0.0184723
-0.0123622
-0.00310236
0.0115026
0.021859
0.0185269
0.0040372
-0.00899286
-0.0118322
-0.00564606
0.00332619
0.00796694
0.00432065
-0.0023095
-0.00162715
0.00748486
0.019746
0.0257635
0.019617
0.00151539
-0.0247899
-0.0529545
-0.0771905
-0.0971418
-0.112468
-0.121699
-0.124285
-0.117759
-0.101085
-0.0751057
-0.0416162
-0.00512182
0.0299791
0.0615052
0.0857376
0.101609
0.110291
0.110291
0.101609
0.0857371
0.0615044
0.0299781
-0.005123
-0.0416176
-0.0751073
-0.101086
-0.117761
-0.124287
-0.121701
-0.112469
-0.0971424
-0.0771907
-0.0529545
-0.0247899
0.00151563
0.0196176
0.0257646
0.0197474
0.00748605
-0.00162649
-0.00230948
0.00432039
0.00796675
0.00332622
-0.00564583
-0.0118321
-0.00899288
0.00403722
0.0185272
0.0218597
0.0115038
-0.00310062
-0.0123602
-0.0184707
-0.025715
-0.0357959
-0.0491395
-0.0650457
-0.0790615
-0.0845295
-0.0822749
-0.0780421
-0.0745065
-0.0667718
-0.051101
-0.030437
-0.0096912
-0.0113437
-0.0353998
-0.0589279
-0.075492
-0.0821826
-0.0842493
-0.0865977
-0.0855026
-0.0751146
-0.0573462
-0.0407268
-0.0287961
-0.0207296
-0.01579
-0.0129508
-0.00732686
0.00353099
0.0103378
0.0040372
-0.011939
-0.0246842
-0.0259552
-0.0163416
-0.00225226
0.00823335
0.00938886
0.00582194
0.00786488
0.0176379
0.0308843
0.0387849
0.0346032
0.0174987
-0.00898686
-0.0384428
-0.063933
-0.0844145
-0.0994619
-0.108183
-0.111128
-0.106998
-0.0943112
-0.0735987
-0.0459918
-0.0148778
0.0157414
0.0434581
0.0649768
0.0790951
0.0866918
0.0866915
0.0790945
0.0649759
0.043457
0.0157402
-0.0148791
-0.0459931
-0.0736
-0.0943126
-0.106999
-0.11113
-0.108185
-0.0994631
-0.084415
-0.0639329
-0.0384424
-0.00898632
0.0174991
0.0346035
0.0387854
0.0308851
0.0176389
0.00786591
0.00582257
0.00938899
0.00823309
-0.00225267
-0.0163419
-0.0259552
-0.0246842
-0.0119389
0.00403722
0.0103378
0.00353135
-0.00732584
-0.0129491
-0.015788
-0.0207279
-0.0287952
-0.0407269
-0.0573472
-0.0751165
-0.0855051
-0.0866006
-0.0842526
-0.0821863
-0.0754956
-0.0589308
-0.0354016
-0.0113442
-0.0110932
-0.0348068
-0.0582324
-0.0738367
-0.0787204
-0.0792652
-0.0801076
-0.0768416
-0.0638332
-0.045431
-0.0313016
-0.0235144
-0.0193428
-0.0173391
-0.0172192
-0.0140804
-0.00586536
-0.00138126
-0.00899286
-0.0246842
-0.0356895
-0.0344155
-0.0207709
-0.00175778
0.0132324
0.0170277
0.0139184
0.0146776
0.0229456
0.0355414
0.0440688
0.0407463
0.0234802
-0.00389844
-0.0345958
-0.0606139
-0.0803303
-0.093709
-0.100954
-0.103614
-0.101458
-0.0925258
-0.0770645
-0.0557627
-0.030848
-0.00565995
0.0173656
0.0356716
0.0479703
0.0545221
0.0545218
0.0479697
0.0356706
0.0173645
-0.00566112
-0.0308492
-0.0557639
-0.0770657
-0.092527
-0.101459
-0.103615
-0.100955
-0.09371
-0.080331
-0.060614
-0.0345954
-0.00389768
0.023481
0.0407467
0.0440689
0.0355414
0.0229459
0.0146783
0.0139193
0.0170284
0.0132326
-0.00175821
-0.0207717
-0.034416
-0.0356897
-0.0246842
-0.00899288
-0.0013815
-0.00586562
-0.0140802
-0.0172181
-0.0173373
-0.0193407
-0.0235126
-0.0313006
-0.045431
-0.0638344
-0.0768436
-0.0801102
-0.0792684
-0.0787243
-0.0738406
-0.0582356
-0.0348087
-0.0110938
-0.0108552
-0.0343181
-0.0580422
-0.0736225
-0.0778774
-0.077669
-0.0771186
-0.0716869
-0.056518
-0.0380284
-0.0263384
-0.0216993
-0.0196273
-0.0181711
-0.017957
-0.0148074
-0.00755077
-0.00418543
-0.0118322
-0.0259552
-0.0344155
-0.0306957
-0.0141991
0.00738352
0.0235517
0.0265956
0.0211283
0.0187046
0.0242463
0.0350953
0.0429972
0.0392201
0.0207623
-0.00764141
-0.0386776
-0.0637991
-0.0814049
-0.0925469
-0.0985514
-0.101445
-0.10164
-0.0964458
-0.0856765
-0.069926
-0.0504957
-0.0302089
-0.0116385
0.00353021
0.0140421
0.019493
0.019493
0.0140418
0.0035297
-0.0116393
-0.0302099
-0.0504968
-0.0699271
-0.0856776
-0.0964467
-0.10164
-0.101445
-0.098552
-0.0925477
-0.0814057
-0.0637997
-0.0386777
-0.00764087
0.0207632
0.0392209
0.0429973
0.0350949
0.0242458
0.0187044
0.0211288
0.0265965
0.0235523
0.00738347
-0.0141999
-0.0306966
-0.034416
-0.0259553
-0.0118321
-0.00418541
-0.00755102
-0.0148075
-0.0179566
-0.0181697
-0.0196253
-0.0216972
-0.0263368
-0.0380278
-0.0565185
-0.0716885
-0.077121
-0.0776722
-0.0778811
-0.0736264
-0.0580453
-0.03432
-0.0108558
-0.0112765
-0.0358866
-0.0615193
-0.0791111
-0.084894
-0.0855034
-0.0844317
-0.0774939
-0.0610475
-0.042897
-0.032637
-0.0284919
-0.0248396
-0.0200552
-0.0161597
-0.0104283
-0.00261665
0.000662538
-0.00564606
-0.0163416
-0.0207709
-0.0141991
0.00405664
0.0259005
0.0405416
0.0409557
0.0324782
0.0271387
0.0301812
0.0387551
0.0447947
0.0391445
0.0186596
-0.010697
-0.041374
-0.065069
-0.0806072
-0.0902464
-0.095986
-0.100045
-0.103261
-0.101999
-0.0954263
-0.0841741
-0.0686561
-0.0514968
-0.0359338
-0.0230731
-0.0140999
-0.00983904
-0.009839
-0.0140999
-0.0230732
-0.0359342
-0.0514975
-0.0686569
-0.0841749
-0.0954269
-0.102
-0.103261
-0.100045
-0.0959864
-0.0902469
-0.0806079
-0.0650698
-0.0413745
-0.0106969
0.0186604
0.0391455
0.0447954
0.038755
0.0301805
0.0271378
0.0324779
0.0409563
0.0405426
0.0259011
0.00405645
-0.0141999
-0.0207717
-0.0163419
-0.00564583
0.000662936
-0.00261652
-0.0104285
-0.0161597
-0.0200546
-0.0248383
-0.0284902
-0.0326354
-0.0428961
-0.0610477
-0.0774953
-0.0844341
-0.0855066
-0.0848978
-0.0791149
-0.0615223
-0.0358883
-0.0112771
-0.0118371
-0.0379792
-0.0661457
-0.0869124
-0.0958209
-0.0987424
-0.0985923
-0.0918454
-0.0761536
-0.0597177
-0.0504078
-0.044446
-0.0360279
-0.0250405
-0.015366
-0.00594164
0.00302415
0.00694761
0.00332619
-0.00225226
-0.00175778
0.00738352
0.0259005
0.0463569
0.058823
0.057472
0.0478087
0.0412763
0.0425527
0.0484818
0.0519115
0.0440745
0.0222237
-0.00723375
-0.0372663
-0.0601727
-0.0748326
-0.0842305
-0.0904094
-0.0956638
-0.101363
-0.103261
-0.0999961
-0.0920985
-0.0788826
-0.0629185
-0.0484083
-0.0361116
-0.0273735
-0.0236353
-0.0236353
-0.0273736
-0.0361117
-0.0484084
-0.0629186
-0.0788827
-0.0920986
-0.0999962
-0.103261
-0.101363
-0.0956642
-0.0904097
-0.0842307
-0.0748329
-0.0601731
-0.0372668
-0.00723404
0.0222239
0.0440753
0.0519125
0.0484824
0.0425525
0.0412755
0.0478079
0.0574719
0.0588237
0.0463579
0.0259011
0.00738347
-0.00175821
-0.00225268
0.00332622
0.00694809
0.00302463
-0.00594148
-0.015366
-0.0250403
-0.0360273
-0.0444452
-0.0504069
-0.0597172
-0.076154
-0.0918469
-0.0985948
-0.0987457
-0.0958245
-0.0869159
-0.0661484
-0.0379807
-0.0118376
-0.0116632
-0.0378709
-0.0671796
-0.0901151
-0.101696
-0.106899
-0.108306
-0.103298
-0.0906264
-0.0778427
-0.0700349
-0.0617553
-0.0480332
-0.0312812
-0.0172046
-0.00569718
0.00339734
0.00803649
0.00796694
0.00823335
0.0132324
0.0235517
0.0405416
0.058823
0.0701224
0.0692489
0.0606996
0.0540006
0.0531875
0.0556975
0.0562805
0.0469544
0.0251844
-0.00334961
-0.0326093
-0.0554101
-0.0702238
-0.0800698
-0.086561
-0.092054
-0.0985621
-0.101588
-0.0995814
-0.093091
-0.0805324
-0.0642884
-0.0490868
-0.035249
-0.0247347
-0.0202432
-0.0202433
-0.0247349
-0.0352491
-0.0490866
-0.0642879
-0.0805318
-0.0930906
-0.0995812
-0.101588
-0.0985623
-0.0920543
-0.0865612
-0.0800698
-0.0702238
-0.0554102
-0.0326096
-0.00334998
0.0251842
0.0469547
0.0562813
0.0556984
0.0531881
0.0540004
0.0606988
0.0692482
0.0701224
0.0588237
0.0405426
0.0235523
0.0132326
0.00823309
0.00796674
0.00803673
0.00339786
-0.00569672
-0.0172044
-0.0312811
-0.0480332
-0.0617554
-0.0700349
-0.0778429
-0.0906272
-0.1033
-0.108309
-0.106902
-0.101699
-0.0901182
-0.0671819
-0.0378721
-0.0116636
-0.00985115
-0.0327666
-0.0598067
-0.0817928
-0.0936424
-0.0996247
-0.102249
-0.0998816
-0.0918951
-0.0844019
-0.0791377
-0.069657
-0.0528185
-0.0339188
-0.0198229
-0.0100277
-0.00316675
0.00128016
0.00432065
0.00938886
0.0170277
0.0265956
0.0409557
0.057472
0.0692489
0.0706034
0.0641849
0.0570743
0.0534904
0.0523842
0.0505121
0.0405226
0.019744
-0.00734941
-0.035528
-0.0579145
-0.072493
-0.0820367
-0.0879534
-0.0926279
-0.0983453
-0.100417
-0.0974038
-0.0900109
-0.07618
-0.0581062
-0.0407667
-0.0241374
-0.0109216
-0.00508288
-0.00508282
-0.0109215
-0.0241371
-0.0407663
-0.0581056
-0.0761794
-0.0900103
-0.0974033
-0.100417
-0.0983451
-0.0926278
-0.0879534
-0.0820368
-0.0724931
-0.0579146
-0.0355281
-0.00734955
0.0197439
0.0405226
0.0505126
0.0523849
0.0534912
0.0570747
0.0641847
0.0706027
0.0692482
0.0574719
0.0409563
0.0265965
0.0170284
0.00938898
0.00432038
0.00128001
-0.00316657
-0.0100273
-0.0198224
-0.0339185
-0.0528186
-0.0696576
-0.0791385
-0.0844026
-0.0918961
-0.0998831
-0.102251
-0.099627
-0.0936449
-0.0817951
-0.0598085
-0.0327675
-0.00985143
-0.00597842
-0.0213729
-0.0418975
-0.0591286
-0.0684553
-0.0738045
-0.0776199
-0.0789437
-0.0770439
-0.0759708
-0.0741436
-0.064957
-0.0478279
-0.030676
-0.0205234
-0.015174
-0.0117543
-0.00783368
-0.0023095
0.00582194
0.0139184
0.0211283
0.0324782
0.0478087
0.0606996
0.0641849
0.0588564
0.0496608
0.0419852
0.0368391
0.0324787
0.0218784
0.00182302
-0.0242808
-0.0515352
-0.0731565
-0.0865589
-0.0942817
-0.098299
-0.101192
-0.105196
-0.105512
-0.100542
-0.0906921
-0.073754
-0.0522061
-0.0316515
-0.012183
0.00311199
0.00985422
0.00985444
0.00311255
-0.0121824
-0.0316509
-0.0522057
-0.0737536
-0.0906916
-0.100541
-0.105511
-0.105195
-0.101192
-0.0982989
-0.094282
-0.0865592
-0.0731566
-0.0515352
-0.0242806
0.00182314
0.0218784
0.0324787
0.0368393
0.0419858
0.0496616
0.0588568
0.0641847
0.0606988
0.0478079
0.0324779
0.0211288
0.0139193
0.00582256
-0.00230948
-0.00783404
-0.0117546
-0.015174
-0.020523
-0.0306755
-0.0478279
-0.0649577
-0.0741447
-0.0759719
-0.0770449
-0.0789448
-0.0776209
-0.0738054
-0.0684563
-0.0591298
-0.0418986
-0.0213735
-0.00597859
-0.000942081
-0.0063551
-0.0177626
-0.0279563
-0.0333005
-0.0376699
-0.0432001
-0.0490123
-0.0536926
-0.0589747
-0.0605834
-0.0524479
-0.0366535
-0.0229016
-0.0172968
-0.0155636
-0.0139289
-0.00936661
-0.00162715
0.00786488
0.0146776
0.0187046
0.0271387
0.0412763
0.0540006
0.0570743
0.0496608
0.0356296
0.0221217
0.0121015
0.00469101
-0.00709414
-0.0273419
-0.0532341
-0.0796933
-0.100203
-0.111728
-0.116667
-0.117911
-0.118259
-0.119873
-0.118189
-0.111101
-0.0983933
-0.0779105
-0.0525152
-0.0284897
-0.00646262
0.0103143
0.0176132
0.0176134
0.0103147
-0.00646211