/*--------------------------------*- C++ -*----------------------------------*\
  =========                 |
  \\      /  F ield         | OpenFOAM: The Open Source CFD Toolbox
   \\    /   O peration     | Website:  https://openfoam.org
    \\  /    A nd           | Version:  dev
     \\/     M anipulation  |
\*---------------------------------------------------------------------------*/
FoamFile
{
    format      ascii;
    class       volScalarField;
    location    "80";
    object      h_0;
}
// * * * * * * * * * * * * * * * * * * * * * * * * * * * * * * * * * * * * * //

dimensions      [0 1 0 0 0 0 0];

internalField   nonuniform List<scalar> 
10000
(
-0.000297423
-0.000570155
-0.000122669
0.000629259
0.000992921
0.00100614
0.0016185
0.00336435
0.00531089
0.00635884
0.00653993
0.00663298
0.00656518
0.0059504
0.0048558
0.00300861
-0.000410887
-0.00538983
-0.00965957
-0.0113006
-0.0110508
-0.0108345
-0.0112948
-0.0118782
-0.011698
-0.00986843
-0.00598421
-0.000947051
0.00320384
0.00576544
0.00702445
0.00738165
0.00739139
0.00730119
0.00680665
0.00564373
0.00349931
0.000657039
-0.00210074
-0.0044757
-0.00606621
-0.00646554
-0.00596425
-0.00486615
-0.00317465
-0.00126378
0.000582169
0.00229674
0.00361892
0.00427914
0.00427926
0.00361924
0.00229719
0.00058263
-0.00126343
-0.00317451
-0.0048663
-0.00596469
-0.00646619
-0.00606695
-0.00447636
-0.00210116
0.000656955
0.0034996
0.00564434
0.00680746
0.00730205
0.00739219
0.00738229
0.0070249
0.0057657
0.00320395
-0.000947087
-0.00598439
-0.00986872
-0.0116983
-0.0118787
-0.0112953
-0.0108351
-0.0110514
-0.0113011
-0.00965992
-0.00538988
-0.000410671
0.00300896
0.0048562
0.00595082
0.00656558
0.00663329
0.00654013
0.00635896
0.00531091
0.00336427
0.00161837
0.00100602
0.00099284
0.000629177
-0.000122756
-0.000570217
-0.00029744
-0.000570155
-0.000769108
0.00108401
0.0037526
0.00520278
0.00551948
0.00745309
0.0125103
0.017989
0.0207134
0.0207895
0.0204973
0.0197074
0.0173535
0.0136107
0.00768515
-0.00278926
-0.0176507
-0.0303058
-0.0352454
-0.0346659
-0.0342535
-0.0359482
-0.0381195
-0.0380028
-0.0328546
-0.0214319
-0.00641403
0.00622087
0.0142849
0.0185331
0.0201549
0.0207603
0.0210754
0.0201676
0.0172227
0.0113262
0.00330645
-0.00455623
-0.0112896
-0.0156937
-0.0165851
-0.0148039
-0.0112784
-0.006104
-0.000420636
0.00490825
0.00972984
0.0133817
0.0151722
0.0151725
0.0133824
0.00973087
0.00490928
-0.000419895
-0.0061038
-0.0112789
-0.014805
-0.0165867
-0.0156955
-0.0112911
-0.00455722
0.00330627
0.0113269
0.0172242
0.0201696
0.0210776
0.0207624
0.0201566
0.0185345
0.0142858
0.00622125
-0.00641412
-0.0214325
-0.0328555
-0.0380041
-0.038121
-0.0359499
-0.0342553
-0.0346678
-0.0352471
-0.030307
-0.017651
-0.00278875
0.00768611
0.0136118
0.0173548
0.0197087
0.0204984
0.0207903
0.020714
0.0179893
0.0125103
0.00745283
0.00551922
0.00520256
0.00375235
0.00108374
-0.000769309
-0.000570216
-0.000122669
0.00108401
0.00531975
0.0105444
0.0135249
0.0143991
0.0174776
0.025035
0.0329285
0.0362454
0.0352087
0.0334279
0.0309167
0.0262221
0.0195399
0.00954117
-0.00746013
-0.0309771
-0.0508191
-0.0586266
-0.0579729
-0.057926
-0.061623
-0.0663951
-0.067437
-0.0600111
-0.0420671
-0.0179373
0.00298641
0.0169222
0.0248476
0.0286526
0.0308335
0.032544
0.0322706
0.0286146
0.0201404
0.00812087
-0.00387442
-0.0140408
-0.0203935
-0.0210564
-0.0173468
-0.0109193
-0.00222146
0.00682883
0.0148119
0.0216476
0.026613
0.0289303
0.0289306
0.0266137
0.0216485
0.0148127
0.00682928
-0.00222156
-0.01092
-0.0173481
-0.021058
-0.0203952
-0.0140422
-0.00387526
0.00812082
0.0201412
0.0286163
0.0322729
0.0325466
0.0308362
0.0286551
0.0248498
0.0169237
0.00298721
-0.0179374
-0.0420681
-0.0600129
-0.0674393
-0.0663978
-0.061626
-0.0579291
-0.057976
-0.0586296
-0.0508212
-0.0309778
-0.00745952
0.00954258
0.0195418
0.0262243
0.0309189
0.03343
0.0352104
0.0362468
0.0329293
0.0250352
0.0174774
0.0143988
0.0135246
0.0105441
0.00531938
0.00108374
-0.000122756
0.000629259
0.0037526
0.0105444
0.0182683
0.0227593
0.0242151
0.0280889
0.0370638
0.0459814
0.0487079
0.0456464
0.0414608
0.0366029
0.0296586
0.0207198
0.00788409
-0.0135348
-0.0425187
-0.0663937
-0.0750966
-0.0735067
-0.0734917
-0.079271
-0.0872663
-0.090484
-0.0820907
-0.0593739
-0.0281978
-0.000582605
0.0180841
0.0288243
0.0342505
0.0376356
0.0405599
0.0410103
0.0369441
0.0265307
0.0113742
-0.0039712
-0.0167144
-0.024193
-0.0240481
-0.0180325
-0.00867197
0.00292106
0.0141236
0.0230816
0.0300504
0.0347124
0.0366325
0.0366326
0.0347125
0.0300505
0.0230815
0.0141232
0.00292036
-0.00867293
-0.0180336
-0.0240491
-0.0241938
-0.0167149
-0.00397129
0.0113745
0.0265316
0.0369454
0.0410122
0.0405623
0.0376383
0.0342534
0.0288272
0.0180864
-0.000581155
-0.0281976
-0.0593751
-0.0820931
-0.0904871
-0.0872698
-0.0792747
-0.0734955
-0.0735106
-0.0751002
-0.0663964
-0.0425199
-0.0135343
0.00788559
0.0207219
0.0296611
0.0366057
0.0414635
0.0456487
0.0487099
0.0459827
0.0370644
0.028089
0.024215
0.0227592
0.0182681
0.0105441
0.00375234
0.000629176
0.000992921
0.00520278
0.0135249
0.0227593
0.0282157
0.0302015
0.0347832
0.0445541
0.05375
0.0555892
0.0506224
0.0441199
0.0371855
0.0288344
0.018914
0.00488107
-0.0185556
-0.049548
-0.0741386
-0.081778
-0.0783781
-0.077755
-0.0850867
-0.0962167
-0.102089
-0.0939285
-0.0686542
-0.0334749
-0.00204283
0.0188419
0.0301765
0.0354601
0.0387282
0.0419827
0.0427713
0.038377
0.0267258
0.00958316
-0.00789876
-0.0218801
-0.0292783
-0.0276726
-0.0192629
-0.00748211
0.00578075
0.0174737
0.0255685
0.0308987
0.033885
0.0346777
0.0346775
0.0338844
0.0308978
0.0255673
0.0174724
0.00577954
-0.00748314
-0.0192636
-0.027673
-0.0292783
-0.0218796
-0.00789801
0.00958412
0.0267269
0.0383783
0.0427727
0.0419844
0.0387304
0.0354628
0.0301794
0.0188446
-0.00204092
-0.0334744
-0.0686553
-0.0939309
-0.102092
-0.0962203
-0.0850904
-0.0777587
-0.0783819
-0.0817817
-0.0741416
-0.0495494
-0.0185554
0.0048823
0.0189158
0.0288366
0.0371881
0.0441226
0.0506249
0.0555915
0.0537516
0.044555
0.0347835
0.0302015
0.0282157
0.0227592
0.0135246
0.00520256
0.00099284
0.00100614
0.00551948
0.0143991
0.0242151
0.0302015
0.0328977
0.0384118
0.0487551
0.0579563
0.0591815
0.0530413
0.0447919
0.0361797
0.0269305
0.0165222
0.00171962
-0.0228089
-0.0540275
-0.0777205
-0.0838601
-0.0789199
-0.0775397
-0.085678
-0.0991023
-0.107231
-0.0998174
-0.0738854
-0.0377232
-0.00543686
0.0152829
0.0254801
0.0295931
0.0322932
0.0358508
0.0374379
0.0336565
0.0223871
0.00541355
-0.0119431
-0.0249988
-0.0306475
-0.0268584
-0.0161962
-0.00280275
0.0108548
0.0217962
0.0281604
0.0313886
0.0325627
0.0322508
0.0322504
0.0325616
0.031387
0.0281587
0.0217946
0.0108535
-0.00280358
-0.0161966
-0.0268583
-0.030647
-0.0249979
-0.0119418
0.00541507
0.0223888
0.0336581
0.0374393
0.0358522
0.0322947
0.0295949
0.0254822
0.0152851
-0.00543522
-0.0377226
-0.0738864
-0.0998197
-0.107235
-0.0991056
-0.0856811
-0.0775429
-0.0789231
-0.0838634
-0.0777233
-0.0540291
-0.0228091
0.00172038
0.0165235
0.0269322
0.0361818
0.0447944
0.0530439
0.0591839
0.0579582
0.0487564
0.0384124
0.0328979
0.0302015
0.024215
0.0143988
0.00551922
0.00100602
0.0016185
0.00745309
0.0174776
0.0280889
0.0347832
0.0384118
0.0445843
0.0543765
0.0620734
0.0615975
0.0537276
0.043195
0.0323533
0.0218155
0.0106457
-0.00510262
-0.0302967
-0.0604651
-0.0819979
-0.0862342
-0.0797765
-0.0769967
-0.0845895
-0.0989096
-0.108576
-0.102361
-0.0776106
-0.0431779
-0.0124483
0.00660201
0.015041
0.0180673
0.0207546
0.0253783
0.0287565
0.0268554
0.0176973
0.00297072
-0.0122401
-0.0227054
-0.0255931
-0.0195531
-0.00726696
0.00688903
0.0202636
0.0303779
0.0356959
0.0379687
0.0385071
0.0378603
0.03786
0.0385062
0.0379675
0.0356945
0.0303767
0.0202628
0.00688857
-0.0072671
-0.019553
-0.0255927
-0.0227046
-0.0122388
0.00297255
0.0176994
0.0268575
0.0287584
0.0253796
0.0207555
0.0180681
0.0150418
0.00660286
-0.0124476
-0.0431779
-0.0776116
-0.102363
-0.108579
-0.0989121
-0.0845918
-0.0769991
-0.0797791
-0.086237
-0.0820006
-0.060467
-0.0302974
-0.00510247
0.0106463
0.0218165
0.0323549
0.0431972
0.0537302
0.0616002
0.0620758
0.0543783
0.0445854
0.0384124
0.0347835
0.028089
0.0174774
0.00745283
0.00161837
0.00336435
0.0125103
0.025035
0.0370638
0.0445541
0.0487551
0.0543765
0.0614133
0.0649586
0.060604
0.0495847
0.0357986
0.0221129
0.0101343
-0.00136727
-0.0170327
-0.0409707
-0.0674119
-0.0842955
-0.0851809
-0.0765542
-0.0716045
-0.0776609
-0.0921422
-0.103535
-0.0999541
-0.0788921
-0.0489633
-0.0218149
-0.00519835
0.00167177
0.00424737
0.00764356
0.0138424
0.0194399
0.0199417
0.0136168
0.00187582
-0.0107651
-0.0187536
-0.0194337
-0.012025
0.00112233
0.0158913
0.029613
0.0402662
0.0464518
0.0497223
0.0511907
0.0511203
0.0511202
0.0511905
0.049722
0.0464515
0.0402659
0.0296129
0.0158912
0.00112242
-0.0120247
-0.0194333
-0.0187529
-0.0107639
0.00187759
0.013619
0.0199441
0.019442
0.0138438
0.00764416
0.00424732
0.00167138
-0.00519881
-0.0218154
-0.0489639
-0.0788932
-0.0999556
-0.103537
-0.0921437
-0.0776622
-0.071606
-0.0765562
-0.0851834
-0.0842981
-0.067414
-0.0409719
-0.0170332
-0.00136741
0.0101345
0.0221138
0.0358003
0.049587
0.0606066
0.0649613
0.0614157
0.0543783
0.0487564
0.044555
0.0370644
0.0250352
0.0125103
0.00336427
0.00531089
0.017989
0.0329285
0.0459814
0.05375
0.0579563
0.0620734
0.0649586
0.0628711
0.0537389
0.0394878
0.0228769
0.00701066
-0.00554304
-0.0160847
-0.0297667
-0.0497203
-0.0693246
-0.0788843
-0.0748536
-0.0636098
-0.0564881
-0.0612254
-0.0764223
-0.090819
-0.0919147
-0.0769268
-0.0535738
-0.0313204
-0.0175129
-0.0120906
-0.00997881
-0.00626791
0.000670881
0.00755974
0.00960246
0.00525007
-0.00448247
-0.01579
-0.0229038
-0.0228948
-0.0150842
-0.00106823
0.0154889
0.0315694
0.0450641
0.0543033
0.0601939
0.0635478
0.0645287
0.0645289
0.0635484
0.0601947
0.0543041
0.0450647
0.0315699
0.0154892
-0.00106791
-0.0150838
-0.0228942
-0.022903
-0.015789
-0.00448107
0.00525177
0.00960429
0.00756138
0.000671968
-0.00626759
-0.00997922
-0.0120915
-0.017514
-0.0313215
-0.0535748
-0.0769278
-0.0919157
-0.0908198
-0.0764227
-0.0612256
-0.0564886
-0.0636109
-0.0748555
-0.0788867
-0.0693269
-0.0497219
-0.0297677
-0.0160855
-0.00554363
0.00701066
0.0228777
0.0394894
0.0537411
0.0628737
0.0649613
0.0620758
0.0579582
0.0537516
0.0459827
0.0329293
0.0179893
0.00531091
0.00635884
0.0207134
0.0362454
0.0487079
0.0555892
0.0591815
0.0615975
0.060604
0.0537389
0.0415025
0.0264118
0.00963193
-0.00605848
-0.0174709
-0.0257245
-0.0361164
-0.0507208
-0.0626067
-0.0649116
-0.0571309
-0.0452456
-0.0380074
-0.0430305
-0.0599002
-0.07794
-0.0843292
-0.0757514
-0.0587384
-0.0407726
-0.0290255
-0.0246837
-0.0234623
-0.0205748
-0.0145105
-0.00799426
-0.00586889
-0.00961231
-0.0186361
-0.0298106
-0.0370534
-0.0366509
-0.0277728
-0.0113328
0.00927969
0.0301852
0.0486192
0.0624138
0.0716718
0.0771036
0.0791915
0.0791919
0.0771046
0.0716732
0.0624152
0.0486205
0.0301862
0.00928046
-0.0113322
-0.0277721
-0.03665
-0.0370524
-0.0298096
-0.0186351
-0.00961137
-0.00586812
-0.00799376
-0.0145104
-0.0205752
-0.0234631
-0.0246848
-0.0290267
-0.0407739
-0.0587396
-0.0757525
-0.0843299
-0.0779402
-0.0598997
-0.0430296
-0.0380067
-0.0452457
-0.0571319
-0.0649134
-0.0626087
-0.0507225
-0.0361178
-0.0257258
-0.0174722
-0.00605931
0.0096318
0.0264125
0.0415039
0.0537411
0.0606066
0.0616002
0.0591839
0.0555915
0.0487099
0.0362468
0.020714
0.00635896
0.00653993
0.0207895
0.0352087
0.0456464
0.0506224
0.0530413
0.0537276
0.0495847
0.0394878
0.0264118
0.0131966
-0.000959863
-0.0143064
-0.0235013
-0.0292352
-0.0364472
-0.0461169
-0.0516167
-0.0490557
-0.0405766
-0.0311718
-0.026333
-0.0327283
-0.0505097
-0.0700522
-0.0790001
-0.0738583
-0.0602662
-0.0444025
-0.0334174
-0.0298236
-0.0301451
-0.0295816
-0.0264764
-0.022595
-0.0224784
-0.0274501
-0.0369714
-0.0482429
-0.0549319
-0.0525657
-0.0404691
-0.0194182
0.00708101
0.0339923
0.0578459
0.0762986
0.088803
0.0961431
0.0993102
0.0993105
0.096144
0.0888043
0.0763002
0.0578475
0.0339938
0.00708233
-0.019417
-0.0404681
-0.0525647
-0.0549308
-0.0482418
-0.0369705
-0.0274496
-0.0224784
-0.0225956
-0.0264774
-0.0295829
-0.0301464
-0.0298249
-0.0334185
-0.0444036
-0.0602673
-0.0738594
-0.0790009
-0.0700522
-0.0505088
-0.0327267
-0.0263314
-0.0311708
-0.0405766
-0.0490568
-0.0516184
-0.0461188
-0.0364489
-0.0292369
-0.0235029
-0.0143077
-0.000960653
0.0131964
0.0264125
0.0394894
0.049587
0.0537302
0.0530439
0.0506249
0.0456487
0.0352104
0.0207903
0.00654013
0.00663298
0.0204973
0.0334279
0.0414608
0.0441199
0.0447919
0.043195
0.0357986
0.0228769
0.00963193
-0.000959863
-0.0116407
-0.0220487
-0.0289776
-0.0324392
-0.0365189
-0.041293
-0.0413571
-0.0358333
-0.0287823
-0.0234992
-0.0217495
-0.0285733
-0.0445009
-0.0617288
-0.0694918
-0.0646425
-0.0520812
-0.0371176
-0.0267483
-0.0245193
-0.0276473
-0.03133
-0.0336309
-0.0350929
-0.0395199
-0.0477525
-0.0586854
-0.0694794
-0.0738804
-0.067219
-0.0496775
-0.0226532
0.00997579
0.0422279
0.0704167
0.0926084
0.107807
0.116852
0.121136
0.121136
0.116853
0.107808
0.0926097
0.0704183
0.0422297
0.0099775
-0.0226518
-0.0496764
-0.0672181
-0.0738795
-0.0694785
-0.0586846
-0.047752
-0.03952
-0.0350939
-0.0336326
-0.0313321
-0.0276493
-0.0245208
-0.0267493
-0.0371183
-0.0520819
-0.0646432
-0.0694924
-0.0617289
-0.0445
-0.0285716
-0.0217474
-0.0234974
-0.0287815
-0.0358336
-0.0413584
-0.0412948
-0.0365208
-0.0324412
-0.0289795
-0.0220504
-0.0116419
-0.000960652
0.0096318
0.0228777
0.0358003
0.0431972
0.0447944
0.0441226
0.0414635
0.03343
0.0204984
0.00663329
0.00656518
0.0197074
0.0309167
0.0366029
0.0371855
0.0361797
0.0323533
0.0221129
0.00701066
-0.00605848
-0.0143064
-0.0220487
-0.0302407
-0.0358687
-0.0378958
-0.0389965
-0.0386363
-0.0335473
-0.025877
-0.020842
-0.0194202
-0.0197046
-0.0248906
-0.0360291
-0.0479665
-0.0526349
-0.0474993
-0.036256
-0.0231579
-0.0145548
-0.014673
-0.021469
-0.0305327
-0.0397783
-0.0484665
-0.0590513
-0.0714794
-0.0837437
-0.0929831
-0.0935998
-0.0814165
-0.057895
-0.0253033
0.0123017
0.0484905
0.0797402
0.104765
0.122131
0.132645
0.137997
0.137997
0.132645
0.122132
0.104766
0.0797415
0.048492
0.0123033
-0.0253019
-0.0578939
-0.0814158
-0.0935993
-0.0929827
-0.0837433
-0.071479
-0.0590512
-0.0484672
-0.0397798
-0.0305349
-0.0214713
-0.0146748
-0.0145559
-0.0231583
-0.0362561
-0.0474994
-0.052635
-0.0479666
-0.0360286
-0.0248892
-0.0197026
-0.0194181
-0.0208403
-0.0258763
-0.0335478
-0.0386376
-0.0389983
-0.0378978
-0.0358707
-0.0302425
-0.0220504
-0.0143077
-0.00605931
0.00701066
0.0221138
0.0323549
0.0361818
0.0371881
0.0366057
0.0309189
0.0197087
0.00656557
0.0059504
0.0173535
0.0262221
0.0296586
0.0288344
0.0269305
0.0218155
0.0101343
-0.00554304
-0.0174709
-0.0235013
-0.0289776
-0.0358687
-0.0412801
-0.0429296
-0.0417333
-0.0367061
-0.0273784
-0.0186456
-0.0159076
-0.0173941
-0.018177
-0.0200079
-0.024953
-0.0311634
-0.0337226
-0.0303576
-0.0225157
-0.0129342
-0.00691971
-0.00928858
-0.0191527
-0.0331476
-0.0491367
-0.0648966
-0.0810136
-0.0965352
-0.108831
-0.115375
-0.111904
-0.0951224
-0.0673423
-0.0310811
0.00991637
0.04913
0.0830708
0.110783
0.130192
0.142002
0.148262
0.148263
0.142003
0.130192
0.110783
0.0830716
0.0491309
0.00991746
-0.0310801
-0.0673415
-0.0951221
-0.111904
-0.115375
-0.108832
-0.0965354
-0.0810136
-0.0648968
-0.0491374
-0.033149
-0.0191545
-0.00929037
-0.0069209
-0.0129346
-0.0225155
-0.0303571
-0.0337223
-0.0311633
-0.0249528
-0.0200073
-0.0181757
-0.0173922
-0.0159055
-0.018644
-0.0273778
-0.0367066
-0.0417347
-0.0429314
-0.0412821
-0.0358707
-0.0289794
-0.0235029
-0.0174722
-0.00554364
0.0101345
0.0218165
0.0269322
0.0288366
0.0296611
0.0262243
0.0173548
0.00595082
0.0048558
0.0136107
0.0195399
0.0207198
0.018914
0.0165222
0.0106457
-0.00136727
-0.0160847
-0.0257245
-0.0292352
-0.0324392
-0.0378958
-0.0429296
-0.0442613
-0.0411199
-0.0322673
-0.020349
-0.0124149
-0.012968
-0.0171801
-0.017852
-0.0160075
-0.0152132
-0.0170824
-0.0196816
-0.0203041
-0.0170267
-0.0107403
-0.00592902
-0.00850704
-0.0193913
-0.0365243
-0.0575026
-0.0784439
-0.0978566
-0.114263
-0.12522
-0.129038
-0.123018
-0.104398
-0.0753569
-0.0379435
0.00473526
0.0462818
0.0829242
0.11352
0.135166
0.148365
0.155485
0.155485
0.148366
0.135167
0.11352
0.0829246
0.0462822
0.00473564
-0.0379432
-0.0753567
-0.104398
-0.123018
-0.12904
-0.125221
-0.114264
-0.097857
-0.0784438
-0.0575024
-0.0365244
-0.0193919
-0.00850812
-0.00593012
-0.010741
-0.0170268
-0.0203038
-0.0196811
-0.0170821
-0.0152132
-0.0160075
-0.0178516
-0.017179
-0.0129662
-0.0124129
-0.0203475
-0.032267
-0.0411206
-0.0442626
-0.0429314
-0.0378978
-0.0324412
-0.0292369
-0.0257258
-0.0160855
-0.00136741
0.0106463
0.0165235
0.0189158
0.0207219
0.0195418
0.0136119
0.0048562
0.00300861
0.00768515
0.00954117
0.00788409
0.00488107
0.00171962
-0.00510262
-0.0170327
-0.0297667
-0.0361164
-0.0364472
-0.0365189
-0.0389965
-0.0417333
-0.0411199
-0.0351691
-0.022628
-0.00908528
-0.00304333
-0.00728947
-0.014022
-0.0146815
-0.0102628
-0.00580487
-0.00563357
-0.00998675
-0.0150848
-0.0154254
-0.0105618
-0.0048922
-0.00582195
-0.0161914
-0.0349501
-0.059152
-0.0834257
-0.104486
-0.120983
-0.131282
-0.134394
-0.128717
-0.111523
-0.0841372
-0.0478916
-0.00532202
0.0373591
0.075956
0.108989
0.132877
0.147732
0.155856
0.155856
0.147732
0.132877
0.10899
0.0759563
0.0373591
-0.00532233
-0.0478922
-0.084138
-0.111523
-0.128718
-0.134395
-0.131283
-0.120984
-0.104487
-0.0834258
-0.0591515
-0.0349492
-0.0161907
-0.00582183
-0.00489263
-0.0105625
-0.0154259
-0.0150848
-0.0099863
-0.00563311
-0.00580472
-0.010263
-0.0146817
-0.0140218
-0.00728844
-0.00304158
-0.00908355
-0.022627
-0.035169
-0.0411206
-0.0417347
-0.0389983
-0.0365208
-0.0364489
-0.0361178
-0.0297677
-0.0170332
-0.00510246
0.00172038
0.00488229
0.00788559
0.00954259
0.00768612
0.00300896
-0.000410887
-0.00278926
-0.00746013
-0.0135348
-0.0185556
-0.0228089
-0.0302967
-0.0409707
-0.0497203
-0.0507208
-0.0461169
-0.041293
-0.0386363
-0.0367061
-0.0322673
-0.022628
-0.00654922
0.00796941
0.0115626
0.00351371
-0.00588214
-0.00747238
-0.00247111
0.00314645
0.00343418
-0.00317014
-0.0117165
-0.0138202
-0.00850449
-0.000701921
0.000741547
-0.00857356
-0.0280318
-0.054062
-0.0803103
-0.102369
-0.119527
-0.131031
-0.135941
-0.13306
-0.119359
-0.095142
-0.0613557
-0.0203747
0.0218478
0.0608843
0.0951014
0.120591
0.136938
0.145986
0.145986
0.136938
0.120591
0.0951016
0.0608843
0.0218474
-0.0203756
-0.0613571
-0.0951437
-0.119361
-0.133061
-0.135942
-0.131032
-0.119528
-0.10237
-0.0803108
-0.0540617
-0.0280309
-0.00857222
0.000742718
-0.000701374
-0.00850466
-0.0138207
-0.0117169
-0.00316995
0.0034347
0.00314693
-0.00247098
-0.00747263
-0.00588241
0.00351407
0.0115638
0.00797111
-0.0065477
-0.022627
-0.032267
-0.0367066
-0.0386376
-0.0412948
-0.0461188
-0.0507225
-0.0497219
-0.0409719
-0.0302974
-0.0228091
-0.0185554
-0.0135344
-0.00745952
-0.00278874
-0.000410673
-0.00538983
-0.0176507
-0.0309771
-0.0425187
-0.049548
-0.0540275
-0.0604651
-0.0674119
-0.0693246
-0.0626067
-0.0516167
-0.0413571
-0.0335473
-0.0273784
-0.020349
-0.00908528
0.00796941
0.0214652
0.0218121
0.0101866
-0.00151985
-0.00417659
0.000785434
0.00706647
0.00806939
0.00126654
-0.00779877
-0.00922549
-0.00206627
0.00819924
0.0119531
0.00386816
-0.0154358
-0.0420283
-0.0693614
-0.0924493
-0.111062
-0.124869
-0.132581
-0.133138
-0.123385
-0.102824
-0.0724108
-0.0344391
0.00566904
0.0434615
0.0771393
0.10277
0.119517
0.128804
0.128804
0.119517
0.102769
0.0771391
0.043461
0.00566817
-0.0344403
-0.0724125
-0.102826
-0.123387
-0.13314
-0.132583
-0.124871
-0.111063
-0.09245
-0.0693619
-0.0420284
-0.0154353
0.00386937
0.0119547
0.00820057
-0.00206562
-0.00922552
-0.00779912
0.0012664
0.00806964
0.00706696
0.000785829
-0.00417658
-0.00152011
0.0101867
0.0218129
0.0214665
0.0079711
-0.00908355
-0.0203475
-0.0273778
-0.0335478
-0.0413584
-0.0516184
-0.0626087
-0.0693269
-0.067414
-0.060467
-0.0540291
-0.0495494
-0.0425199
-0.0309778
-0.017651
-0.00538988
-0.00965957
-0.0303058
-0.0508191
-0.0663937
-0.0741386
-0.0777205
-0.0819979
-0.0842955
-0.0788843
-0.0649116
-0.0490557
-0.0358333
-0.025877
-0.0186456
-0.0124149
-0.00304333
0.0115626
0.0218121
0.0183308
0.00374318
-0.00923615
-0.0118746
-0.00553851
0.00343325
0.0079748
0.00426951
-0.0023077
-0.00149188
0.00777288
0.0201093
0.0260545
0.0197562
0.00152079
-0.0248707
-0.0530304
-0.0772223
-0.0971231
-0.112398
-0.121606
-0.124176
-0.117599
-0.100898
-0.074919
-0.0414458
-0.00503931
0.0299194
0.0613099
0.0853974
0.101147
0.109783
0.109783
0.101147
0.0853969
0.0613091
0.0299183
-0.00504049
-0.0414472
-0.0749205
-0.1009
-0.117601
-0.124178
-0.121607
-0.1124
-0.0971237
-0.0772225
-0.0530304
-0.0248707
0.00152103
0.0197569
0.0260557
0.0201107
0.00777406
-0.00149123
-0.00230768
0.00426925
0.00797461
0.00343329
-0.00553827
-0.0118744
-0.00923618
0.00374318
0.0183311
0.0218129
0.0115638
-0.00304159
-0.0124129
-0.018644
-0.0258763
-0.0358336
-0.0490568
-0.0649134
-0.0788867
-0.0842981
-0.0820006
-0.0777233
-0.0741416
-0.0663964
-0.0508212
-0.030307
-0.00965992
-0.0113006
-0.0352454
-0.0586266
-0.0750966
-0.081778
-0.0838601
-0.0862342
-0.0851809
-0.0748536
-0.0571309
-0.0405766
-0.0287823
-0.020842
-0.0159076
-0.012968
-0.00728947
0.00351371
0.0101866
0.00374318
-0.0123065
-0.0249627
-0.0260029
-0.0162308
-0.00215648
0.00820911
0.00929
0.00576935
0.00795352
0.0178794
0.0311855
0.03898
0.0346136
0.017359
-0.0092001
-0.0386184
-0.0640213
-0.0844193
-0.0993952
-0.108083
-0.111011
-0.106829
-0.0941164
-0.0734059
-0.0458163
-0.0147943
0.0156736
0.0432459
0.0646028
0.0785789
0.086122
0.0861217
0.0785783
0.0646018
0.0432448
0.0156724
-0.0147955
-0.0458175
-0.0734072
-0.0941178
-0.106831
-0.111012
-0.108084
-0.0993964
-0.0844198
-0.0640212
-0.038618
-0.00919957
0.0173594
0.0346138
0.0389804
0.0311863
0.0178804
0.00795455
0.00576997
0.00929011
0.00820885
-0.00215689
-0.0162311
-0.026003
-0.0249627
-0.0123064
0.00374319
0.0101867
0.00351407
-0.00728845
-0.0129662
-0.0159055
-0.0208403
-0.0287815
-0.0405766
-0.0571319
-0.0748555
-0.0851834
-0.086237
-0.0838634
-0.0817817
-0.0751002
-0.0586295
-0.0352471
-0.0113011
-0.0110508
-0.0346659
-0.0579729
-0.0735067
-0.0783781
-0.0789199
-0.0797765
-0.0765542
-0.0636098
-0.0452456
-0.0311718
-0.0234992
-0.0194202
-0.0173941
-0.0171801
-0.014022
-0.00588214
-0.00151985
-0.00923615
-0.0249627
-0.0358531
-0.034351
-0.020568
-0.00159436
0.0132604
0.0169698
0.0138884
0.0147714
0.0231603
0.0357786
0.0441696
0.0406503
0.0232377
-0.00419768
-0.0348431
-0.0607586
-0.0803816
-0.0936833
-0.100888
-0.103527
-0.101324
-0.0923753
-0.0769261
-0.0556471
-0.0308226
-0.00578099
0.0171068
0.0352527
0.0474071
0.0539053
0.053905
0.0474064
0.0352517
0.0171057
-0.00578216
-0.0308238
-0.0556484
-0.0769273
-0.0923764
-0.101326
-0.103529
-0.100889
-0.0936843
-0.0803822
-0.0607587
-0.0348426
-0.00419692
0.0232384
0.0406507
0.0441697
0.0357786
0.0231606
0.0147721
0.0138893
0.0169704
0.0132605
-0.00159479
-0.0205687
-0.0343516
-0.0358533
-0.0249627
-0.00923618
-0.0015201
-0.00588241
-0.0140218
-0.017179
-0.0173922
-0.0194181
-0.0234974
-0.0311708
-0.0452457
-0.0636109
-0.0765562
-0.0797791
-0.0789231
-0.0783819
-0.0735106
-0.057976
-0.0346678
-0.0110514
-0.0108345
-0.0342535
-0.057926
-0.0734917
-0.077755
-0.0775397
-0.0769967
-0.0716045
-0.0564881
-0.0380074
-0.026333
-0.0217495
-0.0197046
-0.018177
-0.017852
-0.0146815
-0.00747238
-0.00417659
-0.0118746
-0.0260029
-0.034351
-0.0304369
-0.0138372
0.00768596
0.0237121
0.0266531
0.0211717
0.0188276
0.0244435
0.0352835
0.0430429
0.0390783
0.0204838
-0.00797184
-0.0389644
-0.0639886
-0.0815057
-0.092579
-0.0985444
-0.101421
-0.101579
-0.0963734
-0.0856159
-0.0698858
-0.050536
-0.0303818
-0.011931
0.00309969
0.0134877
0.0188973
0.0188972
0.0134874
0.00309918
-0.0119317
-0.0303828
-0.0505371
-0.0698869
-0.085617
-0.0963742
-0.10158
-0.101421
-0.098545
-0.0925798
-0.0815065
-0.0639892
-0.0389645
-0.0079713
0.0204847
0.039079
0.0430431
0.0352832
0.024443
0.0188275
0.0211722
0.0266539
0.0237127
0.0076859
-0.013838
-0.0304378
-0.0343516
-0.026003
-0.0118744
-0.00417658
-0.00747263
-0.0146817
-0.0178516
-0.0181757
-0.0197026
-0.0217474
-0.0263314
-0.0380067
-0.0564886
-0.071606
-0.0769991
-0.0775429
-0.0777587
-0.0734955
-0.0579291
-0.0342553
-0.0108351
-0.0112948
-0.0359482
-0.061623
-0.079271
-0.0850867
-0.085678
-0.0845895
-0.0776609
-0.0612254
-0.0430305
-0.0327283
-0.0285733
-0.0248906
-0.0200079
-0.0160075
-0.0102628
-0.00247111
0.000785434
-0.00553851
-0.0162308
-0.020568
-0.0138372
0.0045005
0.0262872
0.0407987
0.0411004
0.0325718
0.0272796
0.0303767
0.0389447
0.0448647
0.0390455
0.0184316
-0.010979
-0.0416247
-0.0652262
-0.080677
-0.0902584
-0.0959698
-0.100027
-0.103222
-0.101946
-0.0953692
-0.0841188
-0.0686545
-0.0515995
-0.0361302
-0.0233796
-0.0145059
-0.0102741
-0.0102741
-0.0145059
-0.0233798
-0.0361306
-0.0516002
-0.0686553
-0.0841196
-0.0953699
-0.101947
-0.103223
-0.100027
-0.0959701
-0.0902589
-0.0806777
-0.065227
-0.0416252
-0.0109789
0.0184323
0.0390466
0.0448653
0.0389446
0.0303759
0.0272787
0.0325716
0.041101
0.0407997
0.0262878
0.00450031
-0.013838
-0.0205687
-0.0162311
-0.00553827
0.000785835
-0.00247098
-0.010263
-0.0160075
-0.0200073
-0.0248892
-0.0285716
-0.0327268
-0.0430296
-0.0612256
-0.0776623
-0.0845918
-0.0856811
-0.0850904
-0.0792747
-0.0616259
-0.0359499
-0.0112953
-0.0118782
-0.0381195
-0.0663951
-0.0872663
-0.0962167
-0.0991023
-0.0989096
-0.0921422
-0.0764223
-0.0599002
-0.0505097
-0.0445009
-0.0360291
-0.024953
-0.0152132
-0.00580487
0.00314645
0.00706647
0.00343325
-0.00215648
-0.00159436
0.00768596
0.0262872
0.0467086
0.0590685
0.0576001
0.0478639
0.0413715
0.042716
0.0486698
0.0520159
0.0440276
0.0220502
-0.00746574
-0.0374735
-0.0602767
-0.074837
-0.0841777
-0.0903332
-0.0955956
-0.101286
-0.103163
-0.0998735
-0.0919443
-0.0787344
-0.0628277
-0.048378
-0.0361674
-0.0275158
-0.0238049
-0.0238049
-0.0275158
-0.0361675
-0.0483781
-0.0628278
-0.0787345
-0.0919444
-0.0998737
-0.103164
-0.101287
-0.0955959
-0.0903335
-0.0841779
-0.0748373
-0.0602772
-0.037474
-0.00746602
0.0220504
0.0440284
0.0520169
0.0486703
0.0427158
0.0413706
0.0478631
0.0576
0.0590692
0.0467096
0.0262878
0.0076859
-0.00159479
-0.00215689
0.00343329
0.00706696
0.00314693
-0.00580472
-0.0152132
-0.0249528
-0.0360286
-0.0445
-0.0505088
-0.0598997
-0.0764227
-0.0921437
-0.0989121
-0.0991056
-0.0962203
-0.0872698
-0.0663978
-0.038121
-0.0118787
-0.011698
-0.0380028
-0.067437
-0.090484
-0.102089
-0.107231
-0.108576
-0.103535
-0.090819
-0.07794
-0.0700522
-0.0617288
-0.0479665
-0.0311634
-0.0170824
-0.00563357
0.00343418
0.00806939
0.0079748
0.00820911
0.0132604
0.0237121
0.0407987
0.0590685
0.0702813
0.0692845
0.0606517
0.0539948
0.0532692
0.0558321
0.0563565
0.0468858
0.0249846
-0.00361274
-0.0328511
-0.0555399
-0.0702458
-0.0800312
-0.0864954
-0.0919939
-0.0984957
-0.101489
-0.0994356
-0.092883
-0.0802868
-0.0640546
-0.0488804
-0.0351058
-0.0246687
-0.020206
-0.0202061
-0.0246689
-0.0351058
-0.0488802
-0.0640541
-0.0802862
-0.0928825
-0.0994354
-0.101489
-0.0984959
-0.0919941
-0.0864955
-0.0800312
-0.0702458
-0.05554
-0.0328514
-0.00361311
0.0249844
0.0468862
0.0563573
0.055833
0.0532697
0.0539946
0.060651
0.0692839
0.0702813
0.0590692
0.0407997
0.0237127
0.0132605
0.00820885
0.00797461
0.00806964
0.00343471
-0.00563311
-0.0170821
-0.0311633
-0.0479666
-0.0617289
-0.0700522
-0.0779402
-0.0908197
-0.103537
-0.108579
-0.107235
-0.102092
-0.0904871
-0.0674393
-0.0380041
-0.0116983
-0.00986843
-0.0328546
-0.0600111
-0.0820907
-0.0939285
-0.0998174
-0.102361
-0.0999541
-0.0919147
-0.0843292
-0.0790001
-0.0694918
-0.0526349
-0.0337226
-0.0196816
-0.00998675
-0.00317014
0.00126654
0.00426951
0.00929
0.0169698
0.0266531
0.0411004
0.0576001
0.0692845
0.0705004
0.0639877
0.0569129
0.0534145
0.0523586
0.0504261
0.0402917
0.0193836
-0.00776302
-0.0359127
-0.0581823
-0.072655
-0.0821385
-0.0880223
-0.0926879
-0.0983821
-0.100395
-0.0973111
-0.0898358
-0.0759447
-0.057858
-0.0405253
-0.0239361
-0.0107771
-0.00495789
-0.00495784
-0.010777
-0.0239358
-0.0405248
-0.0578574
-0.0759441
-0.0898353
-0.0973106
-0.100395
-0.0983819
-0.0926877
-0.0880223
-0.0821386
-0.0726551
-0.0581824
-0.0359128
-0.00776316
0.0193834
0.0402918
0.0504266
0.0523594
0.0534153
0.0569134
0.0639874
0.0704997
0.0692839
0.0576
0.041101
0.0266539
0.0169704
0.0092901
0.00426924
0.0012664
-0.00316995
-0.0099863
-0.0196811
-0.0337223
-0.052635
-0.0694924
-0.0790009
-0.0843299
-0.0919157
-0.0999556
-0.102363
-0.0998197
-0.0939309
-0.0820931
-0.0600129
-0.0328555
-0.00986871
-0.00598421
-0.0214319
-0.0420671
-0.0593739
-0.0686542
-0.0738854
-0.0776106
-0.0788921
-0.0769268
-0.0757514
-0.0738583
-0.0646425
-0.0474993
-0.0303576
-0.0203041
-0.0150848
-0.0117165
-0.00779877
-0.0023077
0.00576935
0.0138884
0.0211717
0.0325718
0.0478639
0.0606517
0.0639877
0.0585489
0.0493628
0.0417416
0.0366182
0.0321885
0.0214547
0.00128378
-0.0248553
-0.052071
-0.0735736
-0.0868712
-0.0945323
-0.0985126
-0.101384
-0.105351
-0.105587
-0.100525
-0.0905801
-0.0735743
-0.052008
-0.0314565
-0.0120146
0.00324417
0.00997884
0.00997906
0.00324473
-0.0120139
-0.0314559
-0.0520076
-0.0735739
-0.0905796
-0.100524
-0.105586
-0.10535
-0.101384
-0.0985126
-0.0945326
-0.0868715
-0.0735737
-0.0520709
-0.0248551
0.00128389
0.0214547
0.0321886
0.0366184
0.0417422
0.0493635
0.0585493
0.0639874
0.060651
0.0478631
0.0325716
0.0211722
0.0138893
0.00576996
-0.00230769
-0.00779912
-0.0117169
-0.0150848
-0.0203038
-0.0303571
-0.0474994
-0.0646432
-0.0738594
-0.0757524
-0.0769278
-0.0788932
-0.0776116
-0.0738864
-0.0686553
-0.0593751
-0.0420681
-0.0214324
-0.00598439
-0.000947051
-0.00641403
-0.0179373
-0.0281978
-0.0334749
-0.0377232
-0.0431779
-0.0489633
-0.0535738
-0.0587384
-0.0602662
-0.0520812
-0.036256
-0.0225157
-0.0170267
-0.0154254
-0.0138202
-0.00922549
-0.00149188
0.00795352
0.0147714
0.0188276
0.0272796
0.0413715
0.0539948
0.0569129
0.0493628
0.0353005
0.0218087
0.0117866
0.00431333
-0.00758253
-0.0279351
-0.0538574
-0.080279
-0.100675
-0.112093
-0.116966
-0.118169
-0.118492
-0.120078
-0.11832
-0.111138
-0.0983352
-0.0777821
-0.0523621
-0.0283412
-0.00634295
0.0103963
0.0176818
0.017682
0.0103967
-0.00634245
-0.0283407
-0.0523617
-0.0777816