/*--------------------------------*- C++ -*----------------------------------*\
  =========                 |
  \\      /  F ield         | OpenFOAM: The Open Source CFD Toolbox
   \\    /   O peration     | Website:  https://openfoam.org
    \\  /    A nd           | Version:  dev
     \\/     M anipulation  |
\*---------------------------------------------------------------------------*/
FoamFile
{
    format      ascii;
    class       volScalarField;
    location    "100";
    object      h;
}
// * * * * * * * * * * * * * * * * * * * * * * * * * * * * * * * * * * * * * //

dimensions      [0 1 0 0 0 0 0];

internalField   nonuniform List<scalar> 
10000
(
0.00014865
0.000348507
0.000521512
0.000694623
0.000652426
0.000106471
-0.0008315
-0.00170377
-0.00223828
-0.00209163
-0.00110904
0.000291099
0.00123067
0.00150401
0.00164635
0.00190318
0.00218706
0.00259256
0.00305672
0.00305304
0.00240629
0.0015069
0.000722501
-3.74275e-05
-0.000748537
-0.000928951
-7.88743e-05
0.00123638
0.00187682
0.00153332
0.000568249
-0.000782401
-0.00217795
-0.00316615
-0.00378382
-0.00447257
-0.00575709
-0.00726923
-0.00774513
-0.00659439
-0.00451638
-0.00249967
-0.00102565
0.000253247
0.00173597
0.00320513
0.00418853
0.0044625
0.00421357
0.00392313
0.0039232
0.00421378
0.00446281
0.0041889
0.0032055
0.00173629
0.000253461
-0.00102559
-0.00249977
-0.00451662
-0.00659469
-0.00774541
-0.00726945
-0.00575726
-0.0044727
-0.0037839
-0.00316615
-0.00217783
-0.000782181
0.00056849
0.00153349
0.00187686
0.0012363
-7.89853e-05
-0.000928996
-0.000748504
-3.73995e-05
0.000722452
0.0015068
0.00240628
0.00305318
0.00305695
0.0025927
0.002187
0.00190296
0.00164616
0.00150403
0.0012309
0.000291336
-0.00110899
-0.00209178
-0.00223847
-0.00170383
-0.000831369
0.0001067
0.000652603
0.000694664
0.000521444
0.000348418
0.000148614
0.000348507
0.000735226
0.000967009
0.00112939
0.000679641
-0.00108355
-0.00374853
-0.00605254
-0.0073895
-0.00692377
-0.00417813
-0.000175201
0.00271194
0.00384198
0.00450892
0.0051908
0.00565334
0.00643354
0.00760234
0.00765622
0.00589178
0.00326074
0.000831986
-0.00149965
-0.00352872
-0.00387663
-0.0012575
0.00253677
0.0041979
0.00296522
3.98494e-05
-0.00384827
-0.00778143
-0.0105522
-0.0123178
-0.0143476
-0.0180931
-0.0224098
-0.0236124
-0.0200516
-0.0138632
-0.00798515
-0.00377889
-0.000138805
0.00417791
0.00856596
0.0116136
0.0125967
0.0120009
0.0112132
0.0112135
0.0120016
0.0125977
0.0116148
0.00856705
0.00417879
-0.000138249
-0.00377874
-0.00798541
-0.0138638
-0.0200523
-0.0236132
-0.0224105
-0.0180937
-0.0143481
-0.0123181
-0.0105521
-0.00778095
-0.00384757
4.04667e-05
0.00296553
0.00419788
0.00253654
-0.00125773
-0.00387669
-0.00352865
-0.00149967
0.000831752
0.00326047
0.00589181
0.00765667
0.00760296
0.00643389
0.00565315
0.00519024
0.00450847
0.00384207
0.00271255
-0.000174599
-0.004178
-0.00692411
-0.00738993
-0.00605266
-0.00374822
-0.00108302
0.000680054
0.00112947
0.00096683
0.000734999
0.000348418
0.000521512
0.000967009
0.000855466
0.000309245
-0.00130626
-0.00472214
-0.00904742
-0.0124491
-0.0144087
-0.0140022
-0.0103786
-0.00459259
0.000173812
0.00285141
0.00476148
0.00594369
0.00596276
0.00628645
0.00774333
0.00817008
0.00600843
0.00216376
-0.0018811
-0.00598123
-0.00936037
-0.00965842
-0.00510353
0.00107691
0.00348694
0.00104456
-0.00405448
-0.0103888
-0.0164682
-0.0205439
-0.0230355
-0.0260796
-0.0319307
-0.0386387
-0.0403027
-0.0343547
-0.0243063
-0.0149533
-0.00843098
-0.00283605
0.00397883
0.0111459
0.0163696
0.0183588
0.0177601
0.0166971
0.0166976
0.0177612
0.0183604
0.0163714
0.0111476
0.00398017
-0.00283523
-0.00843074
-0.0149536
-0.024307
-0.0343558
-0.040304
-0.0386401
-0.0319319
-0.0260806
-0.0230359
-0.0205437
-0.0164673
-0.0103877
-0.00405364
0.00104488
0.00348684
0.00107665
-0.00510373
-0.00965845
-0.00936034
-0.00598139
-0.00188149
0.00216346
0.00600861
0.00817078
0.00774412
0.00628682
0.00596256
0.00594314
0.00476105
0.00285152
0.00017443
-0.00459199
-0.0103784
-0.0140024
-0.0144091
-0.0124492
-0.0090471
-0.00472157
-0.00130579
0.000309402
0.000855353
0.00096683
0.000521445
0.000694623
0.00112939
0.000309245
-0.00162683
-0.00516328
-0.0107036
-0.0167668
-0.0212114
-0.0239246
-0.0242343
-0.0208936
-0.0144679
-0.00820187
-0.00348977
0.000337466
0.00221617
0.00132855
0.00035199
0.0014725
0.00245673
0.00079125
-0.00336786
-0.00874592
-0.0149062
-0.0200226
-0.0203396
-0.0136317
-0.00473326
-0.00128625
-0.00495398
-0.012547
-0.0214887
-0.0293297
-0.0338295
-0.0359377
-0.0390195
-0.0462464
-0.0549019
-0.0570046
-0.0489952
-0.0354723
-0.0229554
-0.0143706
-0.00717513
0.00166002
0.011242
0.0186198
0.0219416
0.0218178
0.020812
0.0208126
0.0218193
0.0219437
0.0186222
0.0112442
0.00166185
-0.00717393
-0.0143702
-0.0229557
-0.0354733
-0.0489967
-0.0570063
-0.0549037
-0.046248
-0.0390207
-0.0359383
-0.0338293
-0.0293288
-0.0214875
-0.012546
-0.00495348
-0.00128615
-0.00473339
-0.0136319
-0.0203398
-0.0200227
-0.0149064
-0.00874615
-0.00336796
0.000791514
0.00245727
0.00147299
0.000352225
0.00132858
0.00221608
0.000337339
-0.00348977
-0.00820167
-0.0144677
-0.0208934
-0.0242342
-0.0239245
-0.0212113
-0.0167666
-0.0107033
-0.00516292
-0.00162656
0.000309401
0.00112947
0.000694666
0.000652426
0.000679641
-0.00130626
-0.00516328
-0.0111187
-0.0191221
-0.0271739
-0.0330107
-0.0368717
-0.0383485
-0.0358228
-0.0292852
-0.0217468
-0.0149079
-0.00904405
-0.00644655
-0.00835114
-0.0110018
-0.0107594
-0.0094086
-0.0101782
-0.0139789
-0.0202408
-0.0283654
-0.0353025
-0.0356869
-0.0268448
-0.0151619
-0.0104706
-0.0152819
-0.0255506
-0.0371619
-0.0463297
-0.050344
-0.050882
-0.0528442
-0.0604311
-0.0703011
-0.0726952
-0.063053
-0.0466718
-0.0315222
-0.0212583
-0.0128669
-0.00250786
0.00911828
0.0186346
0.0236318
0.0244811
0.0238798
0.0238804
0.0244826
0.023634
0.0186372
0.00912088
-0.00250559
-0.0128653
-0.0212576
-0.0315224
-0.046673
-0.0630548
-0.0726973
-0.0703031
-0.0604328
-0.0528455
-0.0508828
-0.0503441
-0.0463292
-0.037161
-0.0255496
-0.0152811
-0.01047
-0.0151618
-0.0268452
-0.0356875
-0.0353029
-0.0283655
-0.0202406
-0.0139786
-0.010178
-0.00940855
-0.0107594
-0.0110017
-0.0083507
-0.00644594
-0.00904375
-0.0149081
-0.0217472
-0.0292855
-0.0358227
-0.038348
-0.0368711
-0.0330103
-0.0271739
-0.0191221
-0.0111185
-0.00516292
-0.00130579
0.000680055
0.000652605
0.000106471
-0.00108355
-0.00472214
-0.0107036
-0.0191221
-0.0296555
-0.0400434
-0.0479582
-0.0535204
-0.0562133
-0.0541134
-0.0470715
-0.0381943
-0.0296563
-0.0224941
-0.019571
-0.0221838
-0.0259747
-0.0265042
-0.0250838
-0.0252762
-0.0287522
-0.0355255
-0.0448679
-0.0528548
-0.0530135
-0.0425273
-0.0289288
-0.0235108
-0.0294603
-0.0420948
-0.055821
-0.0655957
-0.0684228
-0.0666823
-0.0667103
-0.0735975
-0.0835997
-0.0857969
-0.0748872
-0.0565085
-0.0396379
-0.0283898
-0.0193291
-0.00788966
0.00552874
0.0172434
0.0242433
0.0264891
0.026579
0.0265796
0.0264907
0.0242456
0.017246
0.0055315
-0.00788717
-0.0193273
-0.028389
-0.039638
-0.0565096
-0.074889
-0.085799
-0.0836019
-0.0735994
-0.0667118
-0.0666834
-0.0684233
-0.0655955
-0.0558204
-0.0420939
-0.0294593
-0.02351
-0.0289285
-0.0425276
-0.0530142
-0.0528553
-0.0448678
-0.035525
-0.0287517
-0.025276
-0.025084
-0.0265046
-0.0259747
-0.0221831
-0.01957
-0.0224935
-0.0296565
-0.038195
-0.0470721
-0.0541134
-0.0562126
-0.0535195
-0.0479576
-0.0400434
-0.0296558
-0.0191221
-0.0107033
-0.00472157
-0.00108301
0.000106703
-0.0008315
-0.00374853
-0.00904742
-0.0167668
-0.0271739
-0.0400434
-0.0531634
-0.0640418
-0.07198
-0.0758374
-0.0735379
-0.0654595
-0.0553488
-0.0460097
-0.0387757
-0.0360721
-0.0387261
-0.0424211
-0.0429822
-0.0416057
-0.0418539
-0.0455267
-0.0526672
-0.0623057
-0.0702485
-0.0698051
-0.0584282
-0.0441563
-0.0386856
-0.0455564
-0.0597916
-0.0746531
-0.0841211
-0.0851208
-0.0806013
-0.0780675
-0.083299
-0.0924201
-0.094026
-0.0823399
-0.0629192
-0.0452197
-0.0335628
-0.024229
-0.0121112
0.00276513
0.0165854
0.0257619
0.0297094
0.030716
0.0307166
0.0297109
0.0257641
0.0165879
0.00276784
-0.0121087
-0.0242271
-0.0335617
-0.0452196
-0.06292
-0.0823415
-0.094028
-0.0924222
-0.0833011
-0.0780693
-0.0806027
-0.0851216
-0.0841213
-0.0746528
-0.059791
-0.0455556
-0.0386848
-0.0441557
-0.0584281
-0.0698054
-0.0702488
-0.0623056
-0.0526668
-0.0455263
-0.0418537
-0.0416058
-0.0429824
-0.042421
-0.0387255
-0.0360712
-0.0387751
-0.0460097
-0.0553492
-0.0654601
-0.0735381
-0.0758371
-0.0719793
-0.0640412
-0.0531631
-0.0400434
-0.0271739
-0.0167666
-0.0090471
-0.00374822
-0.000831367
-0.00170377
-0.00605254
-0.0124491
-0.0212114
-0.0330107
-0.0479582
-0.0640418
-0.0784126
-0.0890163
-0.0938601
-0.0910137
-0.081818
-0.070798
-0.0613131
-0.0546915
-0.0523416
-0.0543631
-0.0570088
-0.0571091
-0.0559284
-0.0567606
-0.0611304
-0.0687333
-0.0782576
-0.0856587
-0.0846356
-0.0730982
-0.0590019
-0.0536946
-0.0610215
-0.0761352
-0.0913893
-0.0998857
-0.0985517
-0.0907959
-0.0850999
-0.0878474
-0.0953484
-0.0962909
-0.0845426
-0.065058
-0.0472269
-0.0354379
-0.0259596
-0.0134354
0.00249478
0.018088
0.0293158
0.0350269
0.0370523
0.0370527
0.0350281
0.0293176
0.0180902
0.00249728
-0.013433
-0.0259576
-0.0354367
-0.0472265
-0.0650584
-0.0845437
-0.0962926
-0.0953503
-0.0878494
-0.0851017
-0.0907975
-0.0985528
-0.0998863
-0.0913894
-0.076135
-0.0610211
-0.0536939
-0.059001
-0.0730976
-0.0846352
-0.0856584
-0.0782574
-0.0687332
-0.0611303
-0.0567605
-0.0559282
-0.0571089
-0.0570087
-0.0543629
-0.0523413
-0.0546913
-0.0613129
-0.0707979
-0.0818181
-0.0910141
-0.0938605
-0.0890163
-0.0784122
-0.0640412
-0.0479576
-0.0330103
-0.0212113
-0.0124492
-0.00605265
-0.00170383
-0.00223828
-0.0073895
-0.0144087
-0.0239246
-0.0368717
-0.0535204
-0.07198
-0.0890163
-0.101311
-0.106383
-0.102815
-0.0927773
-0.0810588
-0.0713226
-0.0650527
-0.0628137
-0.0640681
-0.0657914
-0.0658158
-0.0652235
-0.0668935
-0.0721803
-0.0804907
-0.0901062
-0.0971937
-0.0960552
-0.0850929
-0.0718
-0.0667645
-0.0741868
-0.0896687
-0.104818
-0.111953
-0.108098
-0.0970235
-0.0878957
-0.0875541
-0.0928127
-0.0930504
-0.081964
-0.0634426
-0.0462131
-0.0345288
-0.0248983
-0.0120757
0.00457508
0.0215189
0.0344509
0.0417246
0.0446922
0.0446925
0.0417255
0.0344523
0.0215207
0.00457725
-0.0120734
-0.0248963
-0.0345274
-0.0462125
-0.0634427
-0.0819646
-0.0930515
-0.0928141
-0.0875557
-0.0878973
-0.0970252
-0.108099
-0.111954
-0.104819
-0.0896689
-0.0741866
-0.0667639
-0.071799
-0.0850918
-0.0960542
-0.0971929
-0.0901057
-0.0804906
-0.0721804
-0.0668934
-0.065223
-0.0658153
-0.0657911
-0.0640682
-0.062814
-0.0650528
-0.0713223
-0.0810582
-0.0927769
-0.102815
-0.106383
-0.101311
-0.0890163
-0.0719793
-0.0535195
-0.0368711
-0.0239245
-0.0144091
-0.00738993
-0.00223847
-0.00209163
-0.00692377
-0.0140022
-0.0242343
-0.0383485
-0.0562133
-0.0758374
-0.0938601
-0.106383
-0.111088
-0.107173
-0.0969307
-0.0845739
-0.0739022
-0.0670713
-0.0644075
-0.064967
-0.0663038
-0.0667834
-0.0668967
-0.0691773
-0.0752855
-0.084606
-0.0948697
-0.102278
-0.10181
-0.0924083
-0.080829
-0.0765149
-0.0838949
-0.0992194
-0.113698
-0.119263
-0.113271
-0.0996468
-0.0876239
-0.0841008
-0.0866679
-0.0860922
-0.0762881
-0.0597928
-0.0440627
-0.0328856
-0.0231286
-0.0100027
0.00715674
0.0250046
0.0391065
0.0474977
0.0511653
0.0511655
0.0474982
0.0391073
0.0250059
0.00715845
-0.0100008
-0.0231269
-0.0328843
-0.0440619
-0.0597923
-0.076288
-0.0860925
-0.0866687
-0.084102
-0.0876255
-0.0996485
-0.113273
-0.119264
-0.113699
-0.09922
-0.083895
-0.0765145
-0.080828
-0.0924069
-0.101808
-0.102277
-0.0948689
-0.0846058
-0.0752855
-0.0691771
-0.0668961
-0.0667827
-0.0663034
-0.0649672
-0.0644079
-0.0670717
-0.0739021
-0.0845735
-0.0969303
-0.107173
-0.111089
-0.106383
-0.0938605
-0.0758371
-0.0562126
-0.038348
-0.0242342
-0.0140024
-0.00692411
-0.00209178
-0.00110904
-0.00417813
-0.0103786
-0.0208936
-0.0358228
-0.0541134
-0.0735379
-0.0910137
-0.102815
-0.107173
-0.103637
-0.0938628
-0.0809406
-0.0688344
-0.0607746
-0.0573115
-0.0572944
-0.0587031
-0.0599777
-0.060745
-0.0633908
-0.070381
-0.0812855
-0.0930506
-0.101627
-0.102654
-0.0956232
-0.0863715
-0.0829879
-0.0900209
-0.104495
-0.117581
-0.121293
-0.113607
-0.0984731
-0.0845685
-0.0783587
-0.0782842
-0.076951
-0.0688103
-0.0549456
-0.0411743
-0.0306521
-0.0207573
-0.00743966
0.00983628
0.0279757
0.0426265
0.0516802
0.0558156
0.0558156
0.0516804
0.0426269
0.0279765
0.00983747
-0.00743828
-0.020756
-0.030651
-0.0411732
-0.0549445
-0.0688093
-0.0769504
-0.0782843
-0.0783595
-0.0845699
-0.0984748
-0.113609
-0.121295
-0.117582
-0.104496
-0.0900216
-0.0829879
-0.0863707
-0.0956216
-0.102652
-0.101625
-0.0930494
-0.081285
-0.0703809
-0.0633906
-0.0607446
-0.0599772
-0.0587028
-0.0572945
-0.0573119
-0.060775
-0.0688348
-0.0809407
-0.0938628
-0.103637
-0.107173
-0.102815
-0.0910141
-0.0735381
-0.0541134
-0.0358227
-0.0208934
-0.0103785
-0.004178
-0.00110899
0.000291099
-0.000175201
-0.00459259
-0.0144679
-0.0292852
-0.0470715
-0.0654595
-0.081818
-0.0927773
-0.0969307
-0.0938628
-0.0843886
-0.0705994
-0.0567596
-0.047146
-0.0426174
-0.0419618
-0.0436034
-0.0458417
-0.0473541
-0.0504972
-0.0587827
-0.0720633
-0.0863582
-0.0970916
-0.100355
-0.0960243
-0.0890132
-0.0863004
-0.0927083
-0.106047
-0.117526
-0.119442
-0.110591
-0.095008
-0.0804387
-0.0725013
-0.0703658
-0.0685915
-0.0623182
-0.0512215
-0.0393876
-0.0293773
-0.0192911
-0.00602474
0.0107839
0.0284288
0.0429107
0.0521575
0.0565404
0.0565403
0.0521573
0.0429106
0.0284291
0.0107845
-0.00602387
-0.0192902
-0.0293764
-0.0393864
-0.0512198
-0.0623165
-0.0685901
-0.0703652
-0.0725016
-0.0804397
-0.0950092
-0.110592
-0.119444
-0.117527
-0.106048
-0.0927094
-0.0863008
-0.0890127
-0.0960228
-0.100353
-0.0970898
-0.0863569
-0.0720625
-0.0587822
-0.0504968
-0.0473539
-0.0458415
-0.0436033
-0.0419619
-0.0426176
-0.0471465
-0.0567603
-0.0706002
-0.084389
-0.0938628
-0.0969303
-0.0927769
-0.0818181
-0.0654601
-0.0470721
-0.0292855
-0.0144677
-0.00459199
-0.0001746
0.000291337
0.00123067
0.00271194
0.000173812
-0.00820187
-0.0217468
-0.0381943
-0.0553488
-0.070798
-0.0810588
-0.0845739
-0.0809406
-0.0705994
-0.0552363
-0.0395036
-0.0283138
-0.0225795
-0.0210465
-0.022703
-0.0257947
-0.0282018
-0.0322061
-0.0422047
-0.0583045
-0.0756821
-0.0891719
-0.0950963
-0.0934695
-0.0883518
-0.0860224
-0.0917609
-0.104067
-0.114179
-0.11479
-0.105625
-0.0908519
-0.0769806
-0.0684237
-0.0649287
-0.0630298
-0.0587008
-0.0503902
-0.0404771
-0.0309331
-0.0206895
-0.00772391
0.00808298
0.0244629
0.0380064
0.0468889
0.051225
0.0512248
0.0468885
0.038006
0.0244627
0.00808316
-0.00772355
-0.020689
-0.0309323
-0.0404757
-0.0503882
-0.0586984
-0.0630278
-0.0649274
-0.0684233
-0.0769808
-0.0908525
-0.105626
-0.114792
-0.114181
-0.104069
-0.0917623
-0.0860231
-0.0883517
-0.0934685
-0.0950948
-0.0891704
-0.0756807
-0.0583033
-0.0422038
-0.0322055
-0.0282017
-0.0257949
-0.0227033
-0.0210467
-0.0225798
-0.0283144
-0.0395045
-0.0552373
-0.0706002
-0.0809407
-0.0845735
-0.0810582
-0.0707979
-0.0553492
-0.038195
-0.0217472
-0.00820167
0.00017443
0.00271255
0.00123091
0.00150401
0.00384198
0.00285141
-0.00348977
-0.0149079
-0.0296563
-0.0460097
-0.0613131
-0.0713226
-0.0739022
-0.0688344
-0.0567596
-0.0395036
-0.0220914
-0.00956641
-0.00251441
0.000464427
-0.000341085
-0.00351466
-0.00657681
-0.0116044
-0.023339
-0.0418947
-0.0618262
-0.0776415
-0.0859696
-0.0868314
-0.0833469
-0.0811734
-0.0859838
-0.0969341
-0.10559
-0.105376
-0.0969626
-0.0844789
-0.0727875
-0.0647381
-0.0605359
-0.0587291
-0.056305
-0.0507525
-0.0428232
-0.0338661
-0.0236792
-0.0113923
0.00283669
0.017211
0.0291193
0.0371596
0.0411999
0.0411997
0.0371591
0.0291188
0.0172106
0.00283647
-0.0113925
-0.0236792
-0.0338655
-0.0428218
-0.0507501
-0.0563022
-0.0587265
-0.0605341
-0.0647371
-0.072787
-0.0844788
-0.096963
-0.105377
-0.105592
-0.0969361
-0.0859855
-0.0811745
-0.0833473
-0.0868312
-0.0859689
-0.0776406
-0.061825
-0.0418934
-0.0233377
-0.0116036
-0.00657671
-0.0035151
-0.000341701
0.000463838
-0.00251497
-0.00956704
-0.0220922
-0.0395045
-0.0567603
-0.0688348
-0.0739021
-0.0713223
-0.0613129
-0.0460097
-0.0296565
-0.0149081
-0.00348977
0.00285152
0.00384207
0.00150403
0.00164635
0.00450892
0.00476148
0.000337466
-0.00904405
-0.0224941
-0.0387757
-0.0546915
-0.0650527
-0.0670713
-0.0607746
-0.047146
-0.0283138
-0.00956641
0.00426368
0.0130945
0.0184522
0.0197202
0.017539
0.0142422
0.00809559
-0.00527205
-0.0255133
-0.0467162
-0.0635103
-0.073224
-0.0759599
-0.0737156
-0.0712958
-0.0745142
-0.0832272
-0.0898562
-0.0890114
-0.0822839
-0.0734927
-0.0654768
-0.0591847
-0.055052
-0.0535125
-0.0526847
-0.0494992
-0.0433926
-0.0351735
-0.025492
-0.0145432
-0.00264792
0.00896063
0.0186438
0.0255154
0.029117
0.0291168
0.0255148
0.0186431
0.00896002
-0.00264847
-0.0145437
-0.0254923
-0.035173
-0.043391
-0.0494966
-0.0526816
-0.0535097
-0.0550498
-0.0591832
-0.0654757
-0.073492
-0.0822837
-0.089012
-0.0898577
-0.0832292
-0.0745161
-0.0712974
-0.0737167
-0.0759605
-0.0732242
-0.0635101
-0.0467155
-0.0255121
-0.00527074
0.00809654
0.0142425
0.0175386
0.0197194
0.0184512
0.0130935
0.00426287
-0.00956704
-0.0283144
-0.0471465
-0.060775
-0.0670717
-0.0650528
-0.0546913
-0.0387751
-0.0224935
-0.00904375
0.000337338
0.00476105
0.00450847
0.00164616
0.00190318
0.0051908
0.00594369
0.00221617
-0.00644655
-0.019571
-0.0360721
-0.0523416
-0.0628137
-0.0644075
-0.0573115
-0.0426174
-0.0225795
-0.00251441
0.0130945
0.0244387
0.0328574
0.0367864
0.036041
0.0325616
0.0250414
0.0100685
-0.0110864
-0.0321137
-0.0481438
-0.0576412
-0.0610486
-0.0592972
-0.0562101
-0.0574341
-0.0633917
-0.067683
-0.0664208
-0.0620689
-0.0579856
-0.0548399
-0.0514683
-0.0482323
-0.0471565
-0.0475188
-0.0461414
-0.0415839
-0.0342781
-0.025698
-0.0169441
-0.00828999
-0.00024275
0.00668459
0.0121412
0.0152138
0.0152135
0.0121406
0.00668383
-0.000243495
-0.00829076
-0.0169448
-0.0256983
-0.0342776
-0.0415823
-0.0461389
-0.0475158
-0.0471538
-0.04823
-0.0514664
-0.0548382
-0.0579842
-0.0620681
-0.0664211
-0.0676844
-0.0633938
-0.0574363
-0.0562122
-0.059299
-0.06105
-0.0576422
-0.0481443
-0.0321138
-0.0110858
0.0100695
0.0250423
0.0325621
0.036041
0.0367858
0.0328564
0.0244374
0.0130935
-0.00251497
-0.0225798
-0.0426176
-0.0573119
-0.0644079
-0.062814
-0.0523413
-0.0360712
-0.01957
-0.00644594
0.00221607
0.00594314
0.00519024
0.00190296
0.00218706
0.00565334
0.00596276
0.00132855
-0.00835114
-0.0221838
-0.0387261
-0.0543631
-0.0640681
-0.064967
-0.0572944
-0.0419618
-0.0210465
0.000464427
0.0184522
0.0328574
0.0443851
0.050734
0.0512521
0.0474923
0.0385968
0.0224193
0.00133628
-0.0180988
-0.031707
-0.0392873
-0.0419513
-0.0399495
-0.0361668
-0.0356748
-0.0390811
-0.0412553
-0.0400092
-0.0386085
-0.0398318
-0.0421876
-0.042374
-0.0404988
-0.0399663
-0.0412656
-0.0414759
-0.0385823
-0.0326644
-0.0258748
-0.0200515
-0.0153241
-0.0114508
-0.00777234
-0.00406269
-0.00168882
-0.00168906
-0.00406329
-0.00777308
-0.0114516
-0.015325
-0.0200523
-0.0258752
-0.032664
-0.0385808
-0.0414736
-0.0412631
-0.0399639
-0.0404967
-0.0423719
-0.0421854
-0.0398298
-0.0386072
-0.0400091
-0.0412565
-0.0390833
-0.0356772
-0.0361693
-0.0399518
-0.0419534
-0.039289
-0.0317083
-0.0180996
0.00133607
0.0224198
0.0385976
0.0474932
0.0512526
0.050734
0.0443845
0.0328564
0.0184512
0.000463837
-0.0210467
-0.0419619
-0.0572945
-0.0649672
-0.0640682
-0.0543629
-0.0387255
-0.0221831
-0.0083507
0.00132858
0.00596256
0.00565315
0.002187
0.00259256
0.00643354
0.00628645
0.00035199
-0.0110018
-0.0259747
-0.0424211
-0.0570088
-0.0657914
-0.0663038
-0.0587031
-0.0436034
-0.022703
-0.000341085
0.0197202
0.0367864
0.050734
0.0588792
0.0604242
0.0565366
0.0468088
0.0304319
0.0107048
-0.00587036
-0.0157623
-0.0199935
-0.0206327
-0.0177657
-0.0133877
-0.0115246
-0.012586
-0.0127915
-0.0117748
-0.0134641
-0.0199294
-0.0276518
-0.0313586
-0.0308678
-0.0308114
-0.0329178
-0.0347595
-0.0338947
-0.0299645
-0.0255894
-0.0232095
-0.0228092
-0.0234498
-0.0233507
-0.0217023
-0.0202273
-0.0202275
-0.0217028
-0.0233514
-0.0234506
-0.02281
-0.0232104
-0.0255898
-0.0299641
-0.0338934
-0.0347577
-0.0329159
-0.0308096
-0.030866
-0.0313565
-0.0276495
-0.019927
-0.0134624
-0.0117744
-0.0127925
-0.012588
-0.0115269
-0.0133901
-0.0177683
-0.0206351
-0.0199957
-0.0157642
-0.00587184
0.010704
0.0304319
0.0468095
0.0565377
0.0604252
0.0588798
0.050734
0.0367858
0.0197194
-0.000341702
-0.0227033
-0.0436033
-0.0587028
-0.0663034
-0.0657911
-0.0570087
-0.0424211
-0.0259747
-0.0110017
0.000352226
0.00628682
0.00643389
0.00259271
0.00305672
0.00760234
0.00774333
0.0014725
-0.0107594
-0.0265042
-0.0429822
-0.0571091
-0.0658158
-0.0667834
-0.0599777
-0.0458417
-0.0257947
-0.00351466
0.017539
0.036041
0.0512521
0.0604242
0.0626471
0.0586307
0.04846
0.0325947
0.0148886
0.00153204
-0.00433816
-0.00466741
-0.00266534
0.00129752
0.00608637
0.00904567
0.0101798
0.0118893
0.0127587
0.0083557
-0.00267025
-0.0150495
-0.0217794
-0.0223208
-0.0223286
-0.024796
-0.0280125
-0.0292509
-0.0276403
-0.0260051
-0.0272089
-0.0311263
-0.0362497
-0.0398265
-0.0404731
-0.0400793
-0.0400795
-0.0404736
-0.0398271
-0.0362505
-0.0311272
-0.0272097
-0.0260055
-0.02764
-0.02925
-0.0280113
-0.0247949
-0.0223276
-0.0223196
-0.0217777
-0.0150472
-0.0026679
0.00835751
0.0127594
0.0118887
0.0101784
0.00904373
0.00608418
0.00129514
-0.00266781
-0.00466987
-0.00434048
0.00153006
0.0148872
0.0325942
0.0484604
0.0586318
0.0626484
0.0604252
0.0512526
0.036041
0.0175386
-0.0035151
-0.0257949
-0.0458415
-0.0599772
-0.0667827
-0.0658153
-0.0571089
-0.0429824
-0.0265046
-0.0107594
0.00147299
0.00774412
0.00760296
0.00305695
0.00305304
0.00765622
0.00817008
0.00245673
-0.0094086
-0.0250838
-0.0416057
-0.0559284
-0.0652235
-0.0668967
-0.060745
-0.0473541
-0.0282018
-0.00657681
0.0142422
0.0325616
0.0474923
0.0565366
0.0586307
0.0539828
0.0431994
0.027851
0.0120303
0.00148632
-0.00078419
0.00263649
0.00732413
0.0122659
0.0170443
0.020482
0.0231848
0.0264132
0.027264
0.0209266
0.00657875
-0.00919979
-0.0179792
-0.0187449
-0.0179171
-0.0198054
-0.0236661
-0.0266356
-0.0272549
-0.0282379
-0.032657
-0.0403482
-0.0494347
-0.0564566
-0.059506
-0.0603558
-0.060356
-0.0595065
-0.0564572
-0.0494355
-0.0403491
-0.0326578
-0.0282383
-0.0272548
-0.0266351
-0.0236657
-0.0198052
-0.0179169
-0.0187442
-0.0179779
-0.00919787
0.00658085
0.0209283
0.0272649
0.0264132
0.023184
0.0204807
0.0170427
0.012264
0.00732192
0.00263404
-0.000786723
0.00148405
0.0120287
0.0278502
0.0431995
0.0539835
0.0586318
0.0565377
0.0474932
0.0325621
0.0142425
-0.00657671
-0.0282017
-0.0473539
-0.0607446
-0.0668961
-0.065223
-0.0559282
-0.0416058
-0.025084
-0.00940855
0.00245727
0.00817078
0.00765668
0.00305318
0.00240629
0.00589178
0.00600843
0.00079125
-0.0101782
-0.0252762
-0.0418539
-0.0567606
-0.0668935
-0.0691773
-0.0633908
-0.0504972
-0.0322061
-0.0116044
0.00809559
0.0250414
0.0385968
0.0468088
0.04846
0.0431994
0.0320728
0.0175838
0.00384349
-0.00399201
-0.00301772
0.00375601
0.0107806
0.0162021
0.0201563
0.0229835
0.0261108
0.0300455
0.0308521
0.0235145
0.00749024
-0.00987959
-0.0191862
-0.0189581
-0.0161817
-0.0165026
-0.0202583
-0.0244575
-0.0269238
-0.0299442
-0.0366219
-0.0469164
-0.0588906
-0.0687356
-0.0740926
-0.0762756
-0.0762757
-0.074093
-0.0687363
-0.0588915
-0.0469175
-0.0366229
-0.0299448
-0.0269241
-0.0244577
-0.0202588
-0.0165034
-0.0161824
-0.0189581
-0.0191853
-0.00987805
0.00749202
0.023516
0.0308531
0.0300459
0.0261108
0.0229831
0.0201556
0.016201
0.0107789
0.00375382
-0.00302019
-0.00399434
0.0038417
0.0175828
0.0320724
0.0431995
0.0484604
0.0468095
0.0385976
0.0250423
0.00809654
-0.0116036
-0.0322055
-0.0504968
-0.0633906
-0.0691771
-0.0668934
-0.0567605
-0.0418537
-0.025276
-0.010178
0.000791515
0.00600861
0.00589181
0.00240628
0.0015069
0.00326074
0.00216376
-0.00336786
-0.0139789
-0.0287522
-0.0455267
-0.0611304
-0.0721803
-0.0752855
-0.070381
-0.0587827
-0.0422047
-0.023339
-0.00527205
0.0100685
0.0224193
0.0304319
0.0325947
0.027851
0.0175838
0.00509491
-0.00568392
-0.0104142
-0.00638568
0.00311734
0.0116381
0.0165379
0.0185851
0.0197431
0.0223207
0.0263063
0.0271952
0.0199955
0.00419558
-0.0127057
-0.0208536
-0.0183988
-0.0126814
-0.0106005
-0.0135479
-0.0183429
-0.0219774
-0.0260257
-0.0334614
-0.0445855
-0.0578134
-0.0694383
-0.0767562
-0.0802566
-0.0802567
-0.0767566
-0.069439
-0.0578143
-0.0445866
-0.0334625
-0.0260266
-0.0219782
-0.0183438
-0.0135492
-0.010602
-0.0126826
-0.0183993
-0.0208531
-0.0127045
0.00419701
0.0199968
0.0271963
0.0263072
0.0223215
0.0197438
0.0185855
0.0165378
0.0116372
0.00311564
-0.00638786
-0.0104164
-0.00568581
0.00509347
0.0175828
0.0278502
0.0325942
0.0304319
0.0224198
0.0100695
-0.00527074
-0.0233377
-0.0422038
-0.0587822
-0.0703809
-0.0752855
-0.0721804
-0.0611303
-0.0455263
-0.0287517
-0.0139786
-0.00336796
0.00216346
0.00326047
0.0015068
0.000722501
0.000831986
-0.0018811
-0.00874592
-0.0202408
-0.0355255
-0.0526672
-0.0687333
-0.0804907
-0.084606
-0.0812855
-0.0720633
-0.0583045
-0.0418947
-0.0255133
-0.0110864
0.00133628
0.0107048
0.0148886
0.0120303
0.00384349
-0.00568392
-0.0129393
-0.01446
-0.00777362
0.00357478
0.0123679
0.0154648
0.0145924
0.013406
0.0149157
0.0186407
0.0199123
0.013953
9.87408e-06
-0.0147887
-0.0205435
-0.0150331
-0.00567739
-0.000455152
-0.00174974
-0.00619514
-0.00994331
-0.0136828
-0.0201297
-0.0300867
-0.0426855
-0.0547748
-0.0634636
-0.0681285
-0.0681286
-0.063464
-0.0547756
-0.0426866
-0.0300879
-0.0201309
-0.0136839
-0.00994445
-0.00619659
-0.00175159
-0.00045713
-0.00567894
-0.0150338
-0.0205432
-0.0147878
1.09552e-05
0.0139542
0.0199135
0.0186421
0.0149173
0.0134077
0.0145938
0.0154656
0.0123678
0.00357367
-0.00777539
-0.014462
-0.0129413
-0.00568581
0.0038417
0.0120287
0.0148872
0.010704
0.00133607
-0.0110858
-0.0255121
-0.0418934
-0.0583033
-0.0720625
-0.081285
-0.0846058
-0.0804906
-0.0687332
-0.0526668
-0.035525
-0.0202406
-0.00874615
-0.00188149
0.000831754
0.000722455
-3.74275e-05
-0.00149965
-0.00598123
-0.0149062
-0.0283654
-0.0448679
-0.0623057
-0.0782576
-0.0901062
-0.0948697
-0.0930506
-0.0863582
-0.0756821
-0.0618262
-0.0467162
-0.0321137
-0.0180988
-0.00587036
0.00153204
0.00148632
-0.00399201
-0.0104142
-0.01446
-0.0132543
-0.00450975
0.0077784
0.0156464
0.0157663
0.0111071
0.00696807
0.00687526
0.00996734
0.0117161
0.00758312
-0.00368934
-0.0156776
-0.018654
-0.0099644
0.0032077
0.012044
0.0132088
0.0101134
0.00729459
0.00500884
0.000960894
-0.00616577
-0.0164572
-0.0276971
-0.0370123
-0.0425475
-0.0425476
-0.0370126
-0.0276978
-0.0164584
-0.00616708
0.000959601
0.00500759
0.00729319
0.0101117
0.0132067
0.0120419
0.00320614
-0.00996509
-0.0186538
-0.015677
-0.00368858
0.00758397
0.0117172
0.00996897
0.00687742
0.00697049
0.0111093
0.0157678
0.015647
0.00777797
-0.004511
-0.0132561
-0.014462
-0.0104164
-0.00399434
0.00148405
0.00153006
-0.00587184
-0.0180996
-0.0321138
-0.0467155
-0.061825
-0.0756807
-0.0863569
-0.0930494
-0.0948689
-0.0901057
-0.0782574
-0.0623056
-0.0448678
-0.0283655
-0.0149064
-0.00598139
-0.00149967
-3.73959e-05
-0.000748537
-0.00352872
-0.00936037
-0.0200226
-0.0353025
-0.0528548
-0.0702485
-0.0856587
-0.0971937
-0.102278
-0.101627
-0.0970916
-0.0891719
-0.0776415
-0.0635103
-0.0481438
-0.031707
-0.0157623
-0.00433816
-0.00078419
-0.00301772
-0.00638568
-0.00777362
-0.00450975
0.00558405
0.0179147
0.0238492
0.0200722
0.010827
0.00294146
0.000450307
0.00229151
0.00425853
0.00200664
-0.00639912
-0.0154795
-0.0158999
-0.00458115
0.0118106
0.0239391
0.0276626
0.0263288
0.0249298
0.024586
0.0235683
0.0201866
0.0133458
0.00406674
-0.00506042
-0.0110527
-0.0110528
-0.00506066
0.00406614
0.0133448
0.0201854
0.023567
0.0245847
0.0249283
0.026327
0.0276605
0.0239372
0.0118093
-0.00458167
-0.0158998
-0.0154792
-0.00639867
0.0020072
0.00425946
0.00229312
0.000452641
0.00294419
0.0108296
0.0200742
0.0238505
0.017915
0.00558351
-0.004511
-0.00777539
-0.00638786
-0.00302019
-0.000786721
-0.00434048
-0.0157642
-0.0317083
-0.0481443
-0.0635101
-0.0776406
-0.0891704
-0.0970898
-0.101625
-0.102277
-0.0971929
-0.0856584
-0.0702488
-0.0528553
-0.0353029
-0.0200227
-0.00936034
-0.00352865
-0.000748501
-0.000928951
-0.00387663
-0.00965842
-0.0203396
-0.0356869
-0.0530135
-0.0698051
-0.0846356
-0.0960552
-0.10181
-0.102654
-0.100355
-0.0950963
-0.0859696
-0.073224
-0.0576412
-0.0392873
-0.0199935
-0.00466741
0.00263649
0.00375601
0.00311734
0.00357478
0.0077784
0.0179147
0.0289624
0.0319033
0.0235564
0.00930825
-0.00263332
-0.00771157
-0.00709946
-0.00464811
-0.00457508
-0.00962766
-0.0155197
-0.0135633
-0.000320079
0.0183043
0.0328614
0.0386696
0.0389446
0.0388656
0.0402737
0.0421473
0.0426657
0.0398398
0.033377
0.0252832
0.0193505
0.0193506
0.0252832
0.0333767
0.0398391
0.0426648
0.0421463
0.0402726
0.0388642
0.0389428
0.0386678
0.0328599
0.0183034
-0.000320357
-0.0135632
-0.0155196
-0.00962758
-0.00457491
-0.0046475
-0.00709809
-0.00770942
-0.00263068
0.00931095
0.0235588
0.031905
0.0289635
0.017915
0.00777796
0.00357367
0.00311564
0.00375382
0.00263404
-0.00466987
-0.0199957
-0.039289
-0.0576422
-0.0732242
-0.0859689
-0.0950948
-0.100353
-0.102652
-0.101808
-0.0960542
-0.0846352
-0.0698054
-0.0530142
-0.0356875
-0.0203398
-0.00965844
-0.00387668
-0.000928993
-7.88743e-05
-0.0012575
-0.00510353
-0.0136317
-0.0268448
-0.0425273
-0.0584282
-0.0730982
-0.0850929
-0.0924083
-0.0956232
-0.0960243
-0.0934695
-0.0868314
-0.0759599
-0.0610486
-0.0419513
-0.0206327
-0.00266534
0.00732413
0.0107806
0.0116381
0.0123679
0.0156464
0.0238492
0.0319033
0.0308336
0.0177454
-0.00102966
-0.0162109
-0.0228857
-0.0223569
-0.0181725
-0.0145806
-0.0153215
-0.0174861
-0.013191
0.00132005
0.0211254
0.0371401
0.0444947
0.0461732
0.0471415
0.0496703
0.0535193
0.0571237
0.0580293
0.0547736
0.0484836
0.0432098
0.0432099
0.0484838
0.0547737
0.0580291
0.0571233
0.0535188
0.0496696
0.0471404
0.0461718
0.0444933
0.037139
0.0211248
0.00131992
-0.013191
-0.0174863
-0.0153218
-0.0145809
-0.0181723
-0.0223559
-0.022884
-0.0162086
-0.0010272
0.0177478
0.0308358
0.031905
0.0238505
0.015647
0.0123678
0.0116372
0.010779
0.00732193
-0.00266781
-0.0206351
-0.0419534
-0.06105
-0.0759605
-0.0868312
-0.0934685
-0.0960228
-0.0956216
-0.0924069
-0.0850918
-0.0730976
-0.0584281
-0.0425276
-0.0268452
-0.0136319