/*--------------------------------*- C++ -*----------------------------------*\
  =========                 |
  \\      /  F ield         | OpenFOAM: The Open Source CFD Toolbox
   \\    /   O peration     | Website:  https://openfoam.org
    \\  /    A nd           | Version:  dev
     \\/     M anipulation  |
\*---------------------------------------------------------------------------*/
FoamFile
{
    format      ascii;
    class       volScalarField;
    location    "100";
    object      h_0;
}
// * * * * * * * * * * * * * * * * * * * * * * * * * * * * * * * * * * * * * //

dimensions      [0 1 0 0 0 0 0];

internalField   nonuniform List<scalar> 
10000
(
0.000148073
0.000349824
0.000532707
0.000719633
0.000685492
0.000138033
-0.000806287
-0.00168318
-0.00221787
-0.00206561
-0.00107926
0.000315519
0.00124527
0.00151647
0.00166949
0.00194094
0.00223573
0.00264367
0.00310129
0.00308475
0.00243263
0.00154544
0.000777695
2.12274e-05
-0.000698538
-0.000889217
-4.66544e-05
0.00126987
0.00192305
0.00159729
0.000639015
-0.000726969
-0.00215048
-0.00315353
-0.003763
-0.00443145
-0.00569614
-0.00719483
-0.00766435
-0.00650874
-0.00442446
-0.00240064
-0.000920599
0.000353611
0.00181723
0.00326059
0.00421631
0.00446527
0.00419724
0.00389403
0.0038941
0.00419745
0.00446558
0.00421668
0.00326097
0.00181755
0.000353826
-0.00092054
-0.00240074
-0.00442469
-0.00650904
-0.00766463
-0.00719506
-0.00569631
-0.00443159
-0.00376309
-0.00315353
-0.00215037
-0.000726747
0.000639259
0.00159746
0.00192308
0.00126978
-4.67677e-05
-0.000889262
-0.000698501
2.12591e-05
0.000777646
0.00154534
0.00243261
0.00308489
0.00310151
0.00264382
0.00223567
0.00194072
0.00166929
0.00151649
0.0012455
0.000315761
-0.00107921
-0.00206575
-0.00221806
-0.00168324
-0.000806159
0.000138264
0.000685674
0.000719676
0.000532637
0.00034973
0.000148035
0.000349824
0.000744917
0.00100184
0.00119737
0.000767316
-0.000996711
-0.00367211
-0.0059842
-0.00732379
-0.00684926
-0.00409867
-0.000110207
0.00275546
0.0038861
0.00458475
0.00530366
0.00579154
0.00657775
0.00773346
0.00775918
0.00598546
0.0033894
0.00100312
-0.00132463
-0.00338087
-0.00375638
-0.00115632
0.00264071
0.00433363
0.00314607
0.000236891
-0.00369454
-0.00770417
-0.0105134
-0.0122539
-0.0142274
-0.0179202
-0.0222016
-0.0233861
-0.0198082
-0.0135982
-0.00769797
-0.00347602
0.000146311
0.00440335
0.00871422
0.0116822
0.0125954
0.0119473
0.0111246
0.0111248
0.011948
0.0125965
0.0116833
0.00871531
0.00440424
0.000146871
-0.00347587
-0.00769822
-0.0135988
-0.019809
-0.0233869
-0.0222023
-0.0179208
-0.0142279
-0.0122542
-0.0105134
-0.00770369
-0.00369384
0.000237516
0.00314639
0.00433361
0.00264048
-0.00115656
-0.00375644
-0.00338079
-0.00132465
0.00100289
0.00338912
0.00598548
0.00775963
0.00773409
0.00657811
0.00579136
0.00530311
0.00458429
0.00388618
0.00275606
-0.000109597
-0.00409853
-0.0068496
-0.00732423
-0.00598433
-0.00367181
-0.000996167
0.00076774
0.00119746
0.00100166
0.000744679
0.00034973
0.000532707
0.00100184
0.000924126
0.000415344
-0.00117666
-0.0045849
-0.00890848
-0.0123127
-0.0142846
-0.0138846
-0.0102684
-0.00450262
0.000246521
0.00293957
0.00489833
0.00612319
0.0061655
0.00649542
0.00794453
0.0083464
0.00618218
0.00238976
-0.00160088
-0.00570569
-0.00912856
-0.00946292
-0.00493066
0.00125416
0.00370675
0.00132635
-0.00375136
-0.0101508
-0.0163426
-0.0204717
-0.0229215
-0.0258802
-0.0316541
-0.0383117
-0.0399488
-0.033973
-0.0238886
-0.0145004
-0.00795656
-0.00239564
0.00431885
0.0113601
0.0164586
0.0183422
0.0176665
0.0165523
0.0165528
0.0176677
0.0183439
0.0164605
0.0113618
0.0043202
-0.00239481
-0.00795631
-0.0145007
-0.0238893
-0.0339741
-0.0399501
-0.0383131
-0.0316554
-0.0258811
-0.022922
-0.0204715
-0.0163417
-0.0101497
-0.00375052
0.00132667
0.00370666
0.00125389
-0.00493086
-0.00946294
-0.00912853
-0.00570585
-0.00160127
0.00238946
0.00618236
0.00834709
0.00794531
0.0064958
0.00616531
0.00612264
0.00489789
0.00293967
0.000247133
-0.00450201
-0.0102683
-0.0138849
-0.014285
-0.0123128
-0.00890817
-0.00458433
-0.00117618
0.000415504
0.00092401
0.00100166
0.000532638
0.000719633
0.00119737
0.000415344
-0.0014874
-0.00499959
-0.0105183
-0.0165598
-0.0209997
-0.0237412
-0.0240838
-0.0207679
-0.0143612
-0.00809479
-0.00334485
0.000542878
0.00245785
0.0015817
0.000610634
0.00173474
0.00270447
0.00104265
-0.00305807
-0.00838215
-0.0145589
-0.0197322
-0.020092
-0.0134111
-0.00451079
-0.00101492
-0.00460582
-0.0121699
-0.0211918
-0.0291742
-0.0337417
-0.0357961
-0.0387669
-0.0458929
-0.0544828
-0.0565518
-0.0485106
-0.0349472
-0.0223902
-0.013783
-0.00663535
0.00206828
0.011487
0.0187046
0.0218926
0.0216715
0.0206013
0.0206018
0.0216729
0.0218947
0.0187069
0.0114893
0.00207012
-0.00663414
-0.0137826
-0.0223906
-0.0349482
-0.0485121
-0.0565535
-0.0544846
-0.0458945
-0.0387681
-0.0357968
-0.0337415
-0.0291734
-0.0211906
-0.0121689
-0.00460531
-0.0010148
-0.00451091
-0.0134113
-0.0200922
-0.0197324
-0.0145591
-0.00838239
-0.00305816
0.00104291
0.002705
0.00173522
0.000610869
0.00158174
0.00245776
0.000542752
-0.00334486
-0.0080946
-0.0143609
-0.0207677
-0.0240837
-0.0237412
-0.0209996
-0.0165596
-0.010518
-0.00499924
-0.00148713
0.000415504
0.00119746
0.000719677
0.000685492
0.000767316
-0.00117666
-0.00499959
-0.0109251
-0.0188941
-0.0269117
-0.0327436
-0.0366486
-0.0381782
-0.0356874
-0.029163
-0.0216074
-0.0147139
-0.00878459
-0.00615945
-0.00806297
-0.0107072
-0.0104507
-0.00910567
-0.00986832
-0.0136099
-0.0198203
-0.0279693
-0.0349732
-0.0354102
-0.0266063
-0.0149302
-0.0101873
-0.0149077
-0.0251367
-0.0368361
-0.0461663
-0.0502609
-0.0507379
-0.0525681
-0.0600327
-0.0698243
-0.072182
-0.0625119
-0.046096
-0.0309105
-0.0206292
-0.0122978
-0.00209202
0.00934551
0.0186794
0.0235265
0.0242666
0.0235938
0.0235944
0.0242681
0.0235287
0.018682
0.00934812
-0.00208974
-0.0122962
-0.0206285
-0.0309108
-0.0460972
-0.0625137
-0.0721841
-0.0698263
-0.0600344
-0.0525695
-0.0507387
-0.0502611
-0.0461658
-0.0368352
-0.0251357
-0.0149068
-0.0101868
-0.0149301
-0.0266067
-0.0354107
-0.0349735
-0.0279694
-0.0198201
-0.0136096
-0.00986811
-0.00910561
-0.0104508
-0.0107072
-0.00806254
-0.00615884
-0.00878427
-0.014714
-0.0216078
-0.0291633
-0.0356873
-0.0381777
-0.036648
-0.0327432
-0.0269116
-0.0188941
-0.010925
-0.00499924
-0.00117618
0.000767742
0.000685676
0.000138033
-0.000996711
-0.0045849
-0.0105183
-0.0188941
-0.0293884
-0.0397478
-0.0476699
-0.0532876
-0.0560405
-0.0539781
-0.0469487
-0.038052
-0.0294568
-0.0222287
-0.0192794
-0.0218925
-0.0256736
-0.0261821
-0.0247594
-0.0249374
-0.0283496
-0.0350709
-0.0444427
-0.0525062
-0.0527313
-0.0422969
-0.0287155
-0.023247
-0.0290973
-0.0416827
-0.0554956
-0.065437
-0.0683465
-0.0665393
-0.0664236
-0.073179
-0.0831006
-0.0852654
-0.0743364
-0.0559329
-0.0390346
-0.0277797
-0.0187939
-0.00752529
0.00568822
0.0172126
0.0240629
0.0262027
0.0262248
0.0262254
0.0262043
0.0240652
0.0172153
0.00569099
-0.0075228
-0.0187921
-0.0277788
-0.0390348
-0.055934
-0.0743382
-0.0852675
-0.0831028
-0.0731809
-0.0664252
-0.0665404
-0.068347
-0.0654369
-0.0554949
-0.0416818
-0.0290963
-0.0232463
-0.0287151
-0.0422972
-0.0527319
-0.0525067
-0.0444427
-0.0350704
-0.0283491
-0.0249372
-0.0247596
-0.0261825
-0.0256736
-0.0218918
-0.0192784
-0.0222281
-0.029457
-0.0380527
-0.0469493
-0.0539781
-0.0560398
-0.0532867
-0.0476694
-0.0397478
-0.0293886
-0.0188941
-0.010518
-0.00458433
-0.000996165
0.000138267
-0.000806287
-0.00367211
-0.00890848
-0.0165598
-0.0269117
-0.0397478
-0.0528596
-0.0637647
-0.0717654
-0.0756833
-0.0734244
-0.0653677
-0.0552497
-0.045861
-0.0385595
-0.0358195
-0.0384648
-0.042147
-0.0426884
-0.0413061
-0.0415294
-0.04513
-0.0522166
-0.0618894
-0.0699214
-0.0695619
-0.0582493
-0.0439999
-0.0384774
-0.0452421
-0.0594187
-0.0743571
-0.0839814
-0.0850556
-0.0804639
-0.0777814
-0.0828808
-0.0919285
-0.0935128
-0.0818209
-0.0623887
-0.0446725
-0.033022
-0.0237763
-0.0118386
0.00282813
0.0164637
0.0255045
0.0293604
0.0303104
0.030311
0.0293619
0.0255067
0.0164663
0.00283084
-0.011836
-0.0237744
-0.0330209
-0.0446724
-0.0623895
-0.0818224
-0.0935148
-0.0919307
-0.0828828
-0.0777832
-0.0804652
-0.0850564
-0.0839816
-0.0743568
-0.0594182
-0.0452414
-0.0384766
-0.0439993
-0.0582492
-0.0695621
-0.0699216
-0.0618893
-0.0522162
-0.0451297
-0.0415293
-0.0413062
-0.0426887
-0.042147
-0.0384643
-0.0358186
-0.0385589
-0.045861
-0.0552502
-0.0653683
-0.0734246
-0.075683
-0.0717648
-0.0637642
-0.0528593
-0.0397478
-0.0269116
-0.0165596
-0.00890817
-0.00367181
-0.000806157
-0.00168318
-0.0059842
-0.0123127
-0.0209997
-0.0327436
-0.0476699
-0.0637647
-0.0781764
-0.0888452
-0.0937509
-0.0909532
-0.0817934
-0.0707821
-0.0612571
-0.0545641
-0.05216
-0.0541583
-0.0567916
-0.0568843
-0.0557033
-0.0565035
-0.0607917
-0.0683336
-0.077891
-0.0853931
-0.0844769
-0.0730185
-0.058944
-0.0535734
-0.0607795
-0.0758207
-0.0911387
-0.0997779
-0.0985103
-0.0906785
-0.0848282
-0.0874417
-0.0948785
-0.095817
-0.0840865
-0.0646136
-0.0467812
-0.0350105
-0.0256243
-0.0132748
0.00245461
0.017879
0.0289921
0.0346308
0.0366145
0.036615
0.034632
0.0289939
0.0178813
0.00245711
-0.0132723
-0.0256223
-0.0350092
-0.0467808
-0.064614
-0.0840876
-0.0958186
-0.0948804
-0.0874436
-0.08483
-0.0906801
-0.0985115
-0.0997785
-0.0911388
-0.0758205
-0.060779
-0.0535726
-0.0589432
-0.0730178
-0.0844765
-0.0853929
-0.0778908
-0.0683335
-0.0607916
-0.0565034
-0.0557031
-0.056884
-0.0567915
-0.0541581
-0.0521597
-0.0545639
-0.0612568
-0.0707819
-0.0817935
-0.0909536
-0.0937513
-0.0888452
-0.078176
-0.0637642
-0.0476694
-0.0327432
-0.0209996
-0.0123128
-0.00598433
-0.00168324
-0.00221787
-0.00732379
-0.0142846
-0.0237412
-0.0366486
-0.0532876
-0.0717654
-0.0888452
-0.101206
-0.106348
-0.102845
-0.092858
-0.08116
-0.0713901
-0.0650439
-0.0627319
-0.0639474
-0.0656585
-0.0656886
-0.0651033
-0.0667364
-0.0719322
-0.0801687
-0.0898065
-0.0970026
-0.0959984
-0.0851349
-0.0718623
-0.0667458
-0.0740262
-0.0894173
-0.104614
-0.111875
-0.10808
-0.0969282
-0.0876419
-0.0871649
-0.0923709
-0.0926266
-0.0815876
-0.063106
-0.0458935
-0.0342385
-0.0246977
-0.0120329
0.00443812
0.021239
0.0340843
0.0413096
0.0442537
0.044254
0.0413104
0.0340856
0.0212408
0.00444029
-0.0120306
-0.0246958
-0.0342371
-0.0458929
-0.063106
-0.0815882
-0.0926277
-0.0923723
-0.0871664
-0.0876435
-0.0969299
-0.108081
-0.111876
-0.104615
-0.0894175
-0.074026
-0.0667452
-0.0718613
-0.0851338
-0.0959974
-0.0970019
-0.0898061
-0.0801687
-0.0719323
-0.0667363
-0.0651028
-0.065688
-0.0656582
-0.0639475
-0.0627322
-0.065044
-0.0713898
-0.0811594
-0.0928577
-0.102845
-0.106349
-0.101206
-0.0888452
-0.0717648
-0.0532867
-0.036648
-0.0237412
-0.014285
-0.00732423
-0.00221806
-0.00206561
-0.00684926
-0.0138846
-0.0240838
-0.0381782
-0.0560405
-0.0756833
-0.0937509
-0.106348
-0.111148
-0.107324
-0.0971513
-0.0848235
-0.0741224
-0.0672137
-0.0644652
-0.0649741
-0.0662948
-0.0667812
-0.0668965
-0.0691303
-0.0751409
-0.0843771
-0.094648
-0.102165
-0.101849
-0.0925584
-0.0809921
-0.0765786
-0.0837972
-0.0990105
-0.11351
-0.119176
-0.113231
-0.0995318
-0.0873546
-0.0837038
-0.0862368
-0.0857044
-0.0759765
-0.0595469
-0.0438507
-0.0327126
-0.0230399
-0.0100491
0.00695883
0.0246959
0.0387445
0.0471167
0.0507825
0.0507826
0.0471172
0.0387454
0.0246972
0.00696055
-0.0100472
-0.0230382
-0.0327114
-0.0438499
-0.0595464
-0.0759764
-0.0857047
-0.0862376
-0.083705
-0.0873562
-0.0995335
-0.113233
-0.119177
-0.113511
-0.0990111
-0.0837974
-0.0765782
-0.0809911
-0.092557
-0.101847
-0.102163
-0.0946472
-0.0843768
-0.075141
-0.0691302
-0.0668959
-0.0667805
-0.0662944
-0.0649743
-0.0644656
-0.0672141
-0.0741224
-0.0848231
-0.0971509
-0.107324
-0.111148
-0.106349
-0.0937513
-0.075683
-0.0560398
-0.0381777
-0.0240837
-0.0138849
-0.0068496
-0.00206575
-0.00107926
-0.00409867
-0.0102684
-0.0207679
-0.0356874
-0.0539781
-0.0734244
-0.0909532
-0.102845
-0.107324
-0.103909
-0.0942166
-0.0813241
-0.0691887
-0.0610533
-0.0575043
-0.057434
-0.0588223
-0.0600947
-0.0608486
-0.0634393
-0.0703401
-0.0811684
-0.0929357
-0.101615
-0.102798
-0.0958733
-0.086619
-0.0831197
-0.0899792
-0.104324
-0.117399
-0.121177
-0.113521
-0.0983188
-0.0842721
-0.0779492
-0.0778617
-0.0765956
-0.0685552
-0.0547765
-0.0410519
-0.0305741
-0.0207514
-0.00753787
0.00962237
0.0276863
0.0423164
0.0513785
0.055532
0.0555321
0.0513787
0.0423168
0.0276871
0.00962356
-0.0075365
-0.0207501
-0.0305729
-0.0410509
-0.0547753
-0.0685541
-0.076595
-0.0778618
-0.07795
-0.0842735
-0.0983204
-0.113523
-0.121178
-0.117401
-0.104324
-0.0899798
-0.0831198
-0.0866182
-0.0958717
-0.102796
-0.101613
-0.0929346
-0.0811679
-0.0703399
-0.0634391
-0.0608481
-0.0600942
-0.058822
-0.057434
-0.0575047
-0.0610538
-0.0691891
-0.0813243
-0.0942165
-0.103909
-0.107324
-0.102845
-0.0909536
-0.0734246
-0.0539781
-0.0356873
-0.0207677
-0.0102683
-0.00409853
-0.00107921
0.000315519
-0.000110207
-0.00450262
-0.0143612
-0.029163
-0.0469487
-0.0653677
-0.0817934
-0.092858
-0.0971513
-0.0942166
-0.0848239
-0.0710573
-0.0571882
-0.0475072
-0.0429009
-0.0421979
-0.0438194
-0.0460453
-0.0475278
-0.0506132
-0.0588308
-0.072059
-0.0863602
-0.0971881
-0.100597
-0.096355
-0.0893187
-0.0864762
-0.092706
-0.105904
-0.117346
-0.119296
-0.110464
-0.0948219
-0.0801252
-0.0720891
-0.069959
-0.068273
-0.0621212
-0.051128
-0.0393518
-0.0293859
-0.0193514
-0.00614924
0.0105861
0.0281908
0.0426789
0.0519548
0.0563706
0.0563705
0.0519546
0.0426789
0.028191
0.0105867
-0.00614838
-0.0193505
-0.029385
-0.0393506
-0.0511264
-0.0621194
-0.0682716
-0.0699584
-0.0720893
-0.0801261
-0.0948231
-0.110465
-0.119297
-0.117347
-0.105905
-0.092707
-0.0864767
-0.0893181
-0.0963535
-0.100595
-0.0971863
-0.0863589
-0.0720582
-0.0588302
-0.0506129
-0.0475276
-0.0460451
-0.0438193
-0.042198
-0.0429012
-0.0475077
-0.0571889
-0.0710581
-0.0848244
-0.0942165
-0.0971509
-0.0928577
-0.0817935
-0.0653683
-0.0469493
-0.0291633
-0.0143609
-0.00450201
-0.000109597
0.000315762
0.00124527
0.00275546
0.000246521
-0.00809479
-0.0216074
-0.038052
-0.0552497
-0.0707821
-0.08116
-0.0848235
-0.0813241
-0.0710573
-0.0557123
-0.0399583
-0.0287151
-0.0229126
-0.0213375
-0.0229749
-0.0260461
-0.0284088
-0.0323547
-0.0423069
-0.0583782
-0.0757671
-0.0893432
-0.0953996
-0.0938407
-0.0886752
-0.0862068
-0.0917711
-0.103936
-0.113991
-0.114612
-0.105461
-0.0906434
-0.0766642
-0.0680256
-0.0645527
-0.0627584
-0.0585656
-0.0503713
-0.0405253
-0.0310247
-0.0208098
-0.0078649
0.00791504
0.0242895
0.037861
0.0467873
0.0511658
0.0511656
0.0467868
0.0378607
0.0242894
0.00791521
-0.00786454
-0.0208093
-0.0310239
-0.0405239
-0.0503692
-0.0585633
-0.0627563
-0.0645514
-0.0680252
-0.0766644
-0.090644
-0.105462
-0.114613
-0.113992
-0.103938
-0.0917725
-0.0862075
-0.088675
-0.0938397
-0.0953981
-0.0893417
-0.0757658
-0.058377
-0.0423059
-0.0323541
-0.0284087
-0.0260463
-0.0229752
-0.0213377
-0.0229129
-0.0287156
-0.0399592
-0.0557133
-0.0710581
-0.0813243
-0.0848231
-0.0811594
-0.0707819
-0.0552502
-0.0380527
-0.0216078
-0.0080946
0.000247133
0.00275606
0.0012455
0.00151647
0.0038861
0.00293957
-0.00334485
-0.0147139
-0.0294568
-0.045861
-0.0612571
-0.0713901
-0.0741224
-0.0691887
-0.0571882
-0.0399583
-0.0225418
-0.00997816
-0.00286315
0.000156931
-0.000630949
-0.00378124
-0.00679231
-0.0117656
-0.0234733
-0.0420204
-0.0619686
-0.0778656
-0.0863135
-0.0872229
-0.0836709
-0.0813556
-0.0860045
-0.0968192
-0.105402
-0.105174
-0.0967719
-0.0842638
-0.0724938
-0.064388
-0.0602238
-0.0585282
-0.0562402
-0.0508033
-0.0429455
-0.0340303
-0.0238507
-0.0115422
0.00270699
0.01711
0.0290642
0.0371573
0.0412447
0.0412444
0.0371568
0.0290636
0.0171096
0.00270676
-0.0115423
-0.0238506
-0.0340297
-0.0429441
-0.050801
-0.0562374
-0.0585256
-0.060222
-0.064387
-0.0724933
-0.0842637
-0.0967723
-0.105175
-0.105404
-0.0968211
-0.0860062
-0.0813567
-0.0836713
-0.0872226
-0.0863128
-0.0778647
-0.0619675
-0.042019
-0.023472
-0.0117648
-0.0067922
-0.00378168
-0.000631569
0.000156336
-0.00286372
-0.0099788
-0.0225426
-0.0399592
-0.0571889
-0.0691891
-0.0741224
-0.0713898
-0.0612568
-0.045861
-0.029457
-0.014714
-0.00334486
0.00293967
0.00388618
0.00151649
0.00166949
0.00458475
0.00489833
0.000542878
-0.00878459
-0.0222287
-0.0385595
-0.0545641
-0.0650439
-0.0672137
-0.0610533
-0.0475072
-0.0287151
-0.00997816
0.00388301
0.0127768
0.0181756
0.019455
0.0172887
0.0140343
0.00792622
-0.00543642
-0.0256876
-0.046915
-0.0637897
-0.0736108
-0.0763731
-0.0740442
-0.0714856
-0.0745628
-0.0831536
-0.0896992
-0.0888223
-0.0821064
-0.0733143
-0.0652554
-0.0589368
-0.0548549
-0.053422
-0.0527144
-0.0496292
-0.0435896
-0.0354075
-0.0257123
-0.0147022
-0.00274163
0.00892649
0.0186676
0.0255947
0.0292427
0.0292424
0.0255941
0.0186669
0.00892588
-0.00274217
-0.0147027
-0.0257125
-0.035407
-0.0435881
-0.0496267
-0.0527114
-0.0534192
-0.0548527
-0.0589354
-0.0652543
-0.0733135
-0.0821061
-0.088823
-0.0897008
-0.0831556
-0.0745648
-0.0714872
-0.0740453
-0.0763737
-0.073611
-0.0637895
-0.0469144
-0.0256864
-0.0054351
0.00792719
0.0140346
0.0172883
0.0194543
0.0181746
0.0127758
0.0038822
-0.0099788
-0.0287156
-0.0475077
-0.0610538
-0.0672141
-0.065044
-0.0545639
-0.0385589
-0.0222281
-0.00878427
0.000542751
0.00489789
0.00458429
0.00166929
0.00194094
0.00530366
0.00612319
0.00245785
-0.00615945
-0.0192794
-0.0358195
-0.05216
-0.0627319
-0.0644652
-0.0575043
-0.0429009
-0.0229126
-0.00286315
0.0127768
0.0241853
0.0326442
0.0365761
0.035831
0.0323768
0.0248757
0.00989036
-0.0112859
-0.0323421
-0.0484501
-0.0580412
-0.0614561
-0.059609
-0.0563923
-0.0575027
-0.0633636
-0.067577
-0.0662783
-0.0619439
-0.0578824
-0.0547281
-0.0513598
-0.0481845
-0.0472043
-0.0476606
-0.0463574
-0.0418553
-0.0345793
-0.0259672
-0.0171179
-0.00835841
-0.000224937
0.00676749
0.0122765
0.01539
0.0153897
0.0122758
0.00676673
-0.00022568
-0.00835918
-0.0171186
-0.0259675
-0.0345788
-0.0418537
-0.0463548
-0.0476576
-0.0472015
-0.0481822
-0.0513579
-0.0547264
-0.0578809
-0.0619431
-0.0662785
-0.0675784
-0.0633657
-0.0575049
-0.0563944
-0.0596108
-0.0614575
-0.0580422
-0.0484507
-0.0323421
-0.0112854
0.00989129
0.0248766
0.0323774
0.035831
0.0365755
0.0326431
0.024184
0.0127758
-0.00286372
-0.0229129
-0.0429012
-0.0575047
-0.0644656
-0.0627322
-0.0521597
-0.0358186
-0.0192784
-0.00615884
0.00245776
0.00612264
0.00530311
0.00194072
0.00223573
0.00579154
0.0061655
0.0015817
-0.00806297
-0.0218925
-0.0384648
-0.0541583
-0.0639474
-0.0649741
-0.057434
-0.0421979
-0.0213375
0.000156931
0.0181756
0.0326442
0.0442125
0.0505631
0.0510775
0.0473383
0.0384579
0.0222685
0.00116872
-0.0182882
-0.0319654
-0.0396245
-0.0422828
-0.0401825
-0.036285
-0.0357119
-0.0390574
-0.041174
-0.0398995
-0.0385263
-0.0397913
-0.0421707
-0.0423906
-0.0405861
-0.040136
-0.0414987
-0.0417522
-0.0389001
-0.0330071
-0.0261744
-0.0202314
-0.0153661
-0.0113843
-0.00763683
-0.00388146
-0.0014751
-0.00147534
-0.00388206
-0.00763756
-0.0113851
-0.015367
-0.0202322
-0.0261748
-0.0330066
-0.0388986
-0.0417499
-0.0414962
-0.0401336
-0.040584
-0.0423886
-0.0421685
-0.0397892
-0.038525
-0.0398994
-0.0411752
-0.0390595
-0.0357143
-0.0362874
-0.0401849
-0.0422849
-0.0396262
-0.0319667
-0.018289
0.0011685
0.0222689
0.0384588
0.0473392
0.0510781
0.0505631
0.0442118
0.0326431
0.0181746
0.000156336
-0.0213378
-0.042198
-0.057434
-0.0649743
-0.0639475
-0.0541581
-0.0384643
-0.0218918
-0.00806254
0.00158174
0.00616531
0.00579136
0.00223567
0.00264367
0.00657775
0.00649542
0.000610634
-0.0107072
-0.0256736
-0.042147
-0.0567916
-0.0656585
-0.0662948
-0.0588223
-0.0438194
-0.0229749
-0.000630949
0.019455
0.0365761
0.0505631
0.0587161
0.0602681
0.0564134
0.0467124
0.0303355
0.0106035
-0.00598184
-0.015929
-0.0202214
-0.0208443
-0.0178817
-0.0134061
-0.0114933
-0.0125287
-0.0126979
-0.0116611
-0.0133851
-0.0199086
-0.0276864
-0.0314588
-0.0310493
-0.0310588
-0.0331921
-0.0350395
-0.0341981
-0.0302896
-0.0258692
-0.0233579
-0.0227976
-0.023313
-0.023143
-0.0214572
-0.0199595
-0.0199597
-0.0214577
-0.0231436
-0.0233138
-0.0227985
-0.0233587
-0.0258696
-0.0302891
-0.0341968
-0.0350376
-0.0331902
-0.031057
-0.0310475
-0.0314568
-0.027684
-0.0199062
-0.0133834
-0.0116606
-0.0126988
-0.0125306
-0.0114957
-0.0134086
-0.0178842
-0.0208468
-0.0202237
-0.0159309
-0.00598334
0.0106026
0.0303354
0.0467131
0.0564145
0.0602691
0.0587167
0.0505631
0.0365755
0.0194543
-0.00063157
-0.0229752
-0.0438193
-0.058822
-0.0662944
-0.0656582
-0.0567915
-0.042147
-0.0256736
-0.0107072
0.000610869
0.0064958
0.00657811
0.00264382
0.00310129
0.00773346
0.00794453
0.00173474
-0.0104507
-0.0261821
-0.0426884
-0.0568843
-0.0656886
-0.0667812
-0.0600947
-0.0460453
-0.0260461
-0.00378124
0.0172887
0.035831
0.0510775
0.0602681
0.0625184
0.0585576
0.0484333
0.0325821
0.0148803
0.00152274
-0.00438605
-0.00475251
-0.0027198
0.00133423
0.00620086
0.00917927
0.0103062
0.01203
0.0129103
0.00846683
-0.00263257
-0.0150993
-0.0219297
-0.0225659
-0.022625
-0.0250828
-0.0282647
-0.0295047
-0.0279135
-0.0262404
-0.027317
-0.0310688
-0.0360602
-0.039568
-0.0401866
-0.0397802
-0.0397803
-0.0401871
-0.0395687
-0.036061
-0.0310697
-0.0273179
-0.0262408
-0.0279132
-0.0295037
-0.0282635
-0.0250817
-0.022624
-0.0225646
-0.021928
-0.0150971
-0.00263022
0.00846864
0.0129111
0.0120295
0.0103047
0.00917735
0.00619868
0.00133186
-0.00272228
-0.00475498
-0.00438839
0.00152075
0.014879
0.0325816
0.0484337
0.0585587
0.0625196
0.0602691
0.0510781
0.035831
0.0172883
-0.00378168
-0.0260463
-0.0460451
-0.0600942
-0.0667805
-0.065688
-0.056884
-0.0426887
-0.0261825
-0.0104508
0.00173522
0.00794531
0.00773409
0.00310152
0.00308475
0.00775918
0.0083464
0.00270447
-0.00910567
-0.0247594
-0.0413061
-0.0557033
-0.0651033
-0.0668965
-0.0608486
-0.0475278
-0.0284088
-0.00679231
0.0140343
0.0323768
0.0473383
0.0564134
0.0585576
0.0539917
0.0432799
0.0279639
0.012155
0.00161476
-0.000677005
0.00273484
0.00746844
0.0124924
0.0173228
0.0207436
0.0233989
0.0266113
0.0274586
0.0210761
0.00664402
-0.00925042
-0.0181646
-0.0190427
-0.0182592
-0.0201095
-0.0239016
-0.0268534
-0.0274945
-0.0284581
-0.0327711
-0.0403076
-0.0492666
-0.0562263
-0.0592584
-0.0601058
-0.060106
-0.0592588
-0.056227
-0.0492674
-0.0403086
-0.032772
-0.0284585
-0.0274944
-0.0268529
-0.0239012
-0.0201093
-0.0182591
-0.0190421
-0.0181633
-0.0092485
0.00664612
0.0210778
0.0274595
0.0266113
0.0233981
0.0207423
0.0173212
0.0124905
0.00746623
0.00273238
-0.000679545
0.00161248
0.0121534
0.0279631
0.04328
0.0539924
0.0585587
0.0564145
0.0473392
0.0323774
0.0140346
-0.0067922
-0.0284087
-0.0475276
-0.0608481
-0.0668959
-0.0651028
-0.0557031
-0.0413062
-0.0247596
-0.00910561
0.002705
0.00834709
0.00775964
0.00308489
0.00243263
0.00598546
0.00618218
0.00104265
-0.00986832
-0.0249374
-0.0415294
-0.0565035
-0.0667364
-0.0691303
-0.0634393
-0.0506132
-0.0323547
-0.0117656
0.00792622
0.0248757
0.0384579
0.0467124
0.0484333
0.0432799
0.0322555
0.0178233
0.00410299
-0.00372626
-0.00275723
0.00403406
0.0111162
0.0166077
0.0205861
0.0233587
0.0263951
0.0302803
0.0310721
0.0236946
0.00758693
-0.00991651
-0.0193854
-0.0192877
-0.0165561
-0.0168227
-0.0204869
-0.0246559
-0.0271515
-0.0301796
-0.0367858
-0.0469507
-0.0588117
-0.0686051
-0.0739555
-0.0761455
-0.0761457
-0.0739559
-0.0686058
-0.0588126
-0.0469518
-0.0367868
-0.0301803
-0.0271518
-0.0246561
-0.0204874
-0.0168235
-0.0165567
-0.0192877
-0.0193845
-0.00991497
0.00758871
0.0236961
0.0310731
0.0302807
0.026395
0.0233583
0.0205854
0.0166066
0.0111146
0.00403188
-0.0027597
-0.0037286
0.00410119
0.0178222
0.0322551
0.04328
0.0484337
0.0467131
0.0384588
0.0248766
0.00792719
-0.0117648
-0.0323541
-0.0506129
-0.0634391
-0.0691302
-0.0667363
-0.0565034
-0.0415293
-0.0249372
-0.00986811
0.00104291
0.00618236
0.00598548
0.00243261
0.00154544
0.0033894
0.00238976
-0.00305807
-0.0136099
-0.0283496
-0.04513
-0.0607917
-0.0719322
-0.0751409
-0.0703401
-0.0588308
-0.0423069
-0.0234733
-0.00543642
0.00989036
0.0222685
0.0303355
0.0325821
0.0279639
0.0178233
0.00540915
-0.00534876
-0.010078
-0.00604738
0.00348927
0.0120722
0.0170305
0.0190807
0.0201545
0.0226065
0.0265195
0.0273943
0.0201733
0.00430327
-0.0127375
-0.0210648
-0.0187532
-0.0130832
-0.0109398
-0.0137814
-0.018537
-0.0222083
-0.0262935
-0.0336985
-0.0447273
-0.0578643
-0.0694525
-0.0767756
-0.0802922
-0.0802924
-0.076776
-0.0694532
-0.0578653
-0.0447284
-0.0336996
-0.0262943
-0.022209
-0.0185379
-0.0137826
-0.0109413
-0.0130845
-0.0187537
-0.0210643
-0.0127363
0.00430469
0.0201746
0.0273954
0.0265204
0.0226073
0.0201552
0.0190812
0.0170304
0.0120713
0.00348757
-0.00604956
-0.0100802
-0.00535065
0.00540771
0.0178222
0.0279631
0.0325816
0.0303354
0.0222689
0.00989129
-0.0054351
-0.023472
-0.0423059
-0.0588302
-0.0703399
-0.075141
-0.0719323
-0.0607916
-0.0451297
-0.0283491
-0.0136096
-0.00305816
0.00238946
0.00338912
0.00154534
0.000777695
0.00100312
-0.00160088
-0.00838215
-0.0198203
-0.0350709
-0.0522166
-0.0683336
-0.0801687
-0.0843771
-0.0811684
-0.072059
-0.0583782
-0.0420204
-0.0256876
-0.0112859
0.00116872
0.0106035
0.0148803
0.012155
0.00410299
-0.00534876
-0.0125965
-0.0141334
-0.00745034
0.00393492
0.0127881
0.0159344
0.0150514
0.0137606
0.0151196
0.0187567
0.0200212
0.014066
7.38409e-05
-0.0148596
-0.0207992
-0.015437
-0.00613037
-0.000841325
-0.00201969
-0.00641528
-0.0102018
-0.0140022
-0.0204591
-0.0303599
-0.042897
-0.0549688
-0.0636762
-0.0683669
-0.068367
-0.0636766
-0.0549696
-0.0428981
-0.0303611
-0.0204603
-0.0140033
-0.0102029
-0.00641673
-0.00202155
-0.000843303
-0.00613193
-0.0154377
-0.0207989
-0.0148587
7.49075e-05
0.0140671
0.0200224
0.018758
0.0151212
0.0137623
0.0150529
0.0159352
0.012788
0.00393382
-0.0074521
-0.0141354
-0.0125985
-0.00535066
0.00410119
0.0121534
0.014879
0.0106026
0.0011685
-0.0112854
-0.0256864
-0.042019
-0.058377
-0.0720582
-0.0811679
-0.0843768
-0.0801687
-0.0683335
-0.0522162
-0.0350704
-0.0198201
-0.00838239
-0.00160127
0.00100289
0.000777649
2.12274e-05
-0.00132463
-0.00570569
-0.0145589
-0.0279693
-0.0444427
-0.0618894
-0.077891
-0.0898065
-0.094648
-0.0929357
-0.0863602
-0.0757671
-0.0619686
-0.046915
-0.0323421
-0.0182882
-0.00598184
0.00152274
0.00161476
-0.00372626
-0.010078
-0.0141334
-0.0129648
-0.00423395
0.00808786
0.0160101
0.0161716
0.0114933
0.00723439
0.00696774
0.00995394
0.0116989
0.00759443
-0.00370154
-0.0158094
-0.0189614
-0.0104129
0.00271297
0.0116174
0.0129041
0.00986879
0.00701615
0.0046543
0.000562505
-0.00654493
-0.0168048
-0.0280477
-0.0373944
-0.0429637
-0.0429638
-0.0373948
-0.0280485
-0.016806
-0.00654624
0.000561218
0.00465306
0.00701476
0.00986703
0.0129019
0.0116153
0.00271141
-0.0104135
-0.0189613
-0.0158089
-0.00370079
0.00759527
0.0117
0.00995557
0.00696991
0.00723681
0.0114955
0.0161731
0.0160107
0.00808744
-0.00423518
-0.0129665
-0.0141354
-0.0100802
-0.0037286
0.00161248
0.00152075
-0.00598334
-0.018289
-0.0323421
-0.0469144
-0.0619675
-0.0757658
-0.0863589
-0.0929346
-0.0946472
-0.0898061
-0.0778908
-0.0618893
-0.0444427
-0.0279694
-0.0145591
-0.00570585
-0.00132465
2.12627e-05
-0.000698538
-0.00338087
-0.00912856
-0.0197322
-0.0349732
-0.0525062
-0.0699214
-0.0853931
-0.0970026
-0.102165
-0.101615
-0.0971881
-0.0893432
-0.0778656
-0.0637897
-0.0484501
-0.0319654
-0.015929
-0.00438605
-0.000677005
-0.00275723
-0.00604738
-0.00745034
-0.00423395
0.00584248
0.0182053
0.0241885
0.020449
0.0111833
0.00316919
0.000484475
0.00220156
0.00416557
0.00196514
-0.00643545
-0.0156099
-0.0161814
-0.00498399
0.0113686
0.023563
0.0274069
0.0261404
0.0247169
0.0242933
0.0232108
0.0198212
0.0129881
0.00369008
-0.00547744
-0.0115092
-0.0115093
-0.00547768
0.00368947
0.0129871
0.01982
0.0232096
0.0242921
0.0247154
0.0261385
0.0274048
0.0235611
0.0113673
-0.00498451
-0.0161813
-0.0156095
-0.00643501
0.00196568
0.00416649
0.00220317
0.000486809
0.00317192
0.0111859
0.0204511
0.0241897
0.0182056
0.00584196
-0.00423518
-0.0074521
-0.00604956
-0.0027597
-0.000679543
-0.00438839
-0.0159309
-0.0319667
-0.0484507
-0.0637895
-0.0778647
-0.0893417
-0.0971863
-0.101613
-0.102163
-0.0970019
-0.0853929
-0.0699216
-0.0525067
-0.0349735
-0.0197324
-0.00912853
-0.00338079
-0.000698498
-0.000889217
-0.00375638
-0.00946292
-0.020092
-0.0354102
-0.0527313
-0.0695619
-0.0844769
-0.0959984
-0.101849
-0.102798
-0.100597
-0.0953996
-0.0863135
-0.0736108
-0.0580412
-0.0396245
-0.0202214
-0.00475251
0.00273484
0.00403406
0.00348927
0.00393492
0.00808786
0.0182053
0.0292799
0.0322597
0.0239466
0.00968047
-0.00239217
-0.00767628
-0.00720188
-0.00475518
-0.00461565
-0.00964065
-0.0155997
-0.0137626
-0.000614166
0.0179796
0.0325953
0.0385147
0.038861
0.0387736
0.040114
0.0419208
0.0424196
0.0395873
0.0330957
0.0249569
0.0189822
0.0189822
0.0249568
0.0330954
0.0395866
0.0424187
0.0419198
0.0401128
0.0387722
0.0388593
0.0385129
0.0325938
0.0179787
-0.00061444
-0.0137625
-0.0155996
-0.00964057
-0.00461549
-0.00475458
-0.00720051
-0.00767412
-0.00238952
0.00968316
0.0239489
0.0322615
0.0292811
0.0182056
0.00808744
0.00393382
0.00348757
0.00403188
0.00273239
-0.00475498
-0.0202237
-0.0396262
-0.0580422
-0.073611
-0.0863128
-0.0953981
-0.100595
-0.102796
-0.101847
-0.0959974
-0.0844765
-0.0695621
-0.0527319
-0.0354107
-0.0200922
-0.00946294
-0.00375644
-0.000889259
-4.66544e-05
-0.00115632
-0.00493066
-0.0134111
-0.0266063
-0.0422969
-0.0582493
-0.0730185
-0.0851349
-0.0925584
-0.0958733
-0.096355
-0.0938407
-0.0872229
-0.0763731
-0.0614561
-0.0422828
-0.0208443
-0.0027198
0.00746844
0.0111162
0.0120722
0.0127881
0.0160101
0.0241885
0.0322597
0.0312169
0.0181566
-0.000635464
-0.0159482
-0.0228348
-0.0224537
-0.018282
-0.0146232
-0.0153286
-0.017542
-0.0133374
0.00110509
0.020888
0.0369514
0.0444046
0.0461585
0.0471414
0.0496289
0.0534264
0.0570137
0.0579075
0.0546177
0.0482811
0.0429649
0.042965
0.0482813
0.0546177
0.0579072
0.0570133
0.0534259
0.0496281
0.0471403
0.0461571
0.0444031
0.0369503
0.0208875
0.00110497
-0.0133374
-0.0175422
-0.015329
-0.0146235
-0.0182818
-0.0224527
-0.022833
-0.0159459
-0.000633002
0.018159
0.031219
0.0322615
0.0241897
0.0160107
0.012788
0.0120713
0.0111146
0.00746624
-0.00272228
-0.0208468
-0.0422849
-0.0614575
-0.0763737
-0.0872226
-0.0938397
-0.0963535
-0.0958717
-0.092557
-0.0851338
-0.0730178
-0.0582492
-0.0422972
-0.0266067