/*--------------------------------*- C++ -*----------------------------------*\
| =========                 |                                                 |
| \\      /  F ield         | OpenFOAM: The Open Source CFD Toolbox           |
|  \\    /   O peration     | Version:  v2106                                 |
|   \\  /    A nd           | Website:  www.openfoam.com                      |
|    \\/     M anipulation  |                                                 |
\*---------------------------------------------------------------------------*/
FoamFile
{
    version     2.0;
    format      ascii;
    arch        "LSB;label=32;scalar=64";
    class       volVectorField;
    location    "1";
    object      U;
}
// * * * * * * * * * * * * * * * * * * * * * * * * * * * * * * * * * * * * * //

dimensions      [0 1 -1 0 0 0 0];

internalField   nonuniform List<vector> 
400
(
(-1.61464e-13 -1.61464e-13 0)
(-8.64671e-15 -1.70713e-13 0)
(-8.90129e-15 -1.80429e-13 0)
(-8.95439e-15 -1.90455e-13 0)
(-8.71948e-15 -2.00533e-13 0)
(-8.10649e-15 -2.10287e-13 0)
(-7.04143e-15 -2.19215e-13 0)
(-5.49423e-15 -2.26719e-13 0)
(-3.50681e-15 -2.32177e-13 0)
(-1.20678e-15 -2.3506e-13 0)
(1.20678e-15 -2.3506e-13 0)
(3.50681e-15 -2.32177e-13 0)
(5.49423e-15 -2.26719e-13 0)
(7.04143e-15 -2.19215e-13 0)
(8.10649e-15 -2.10287e-13 0)
(8.71948e-15 -2.00533e-13 0)
(8.95439e-15 -1.90455e-13 0)
(8.90129e-15 -1.80429e-13 0)
(8.64671e-15 -1.70713e-13 0)
(1.61464e-13 -1.61464e-13 0)
(-1.70713e-13 -8.64671e-15 0)
(-1.03184e-14 -1.03184e-14 0)
(-1.08413e-14 -1.23166e-14 0)
(-1.11496e-14 -1.46638e-14 0)
(-1.1112e-14 -1.73454e-14 0)
(-1.0575e-14 -2.02804e-14 0)
(-9.39081e-15 -2.32898e-14 0)
(-7.46833e-15 -2.60805e-14 0)
(-4.83458e-15 -2.82723e-14 0)
(-1.67629e-15 -2.94883e-14 0)
(1.67629e-15 -2.94883e-14 0)
(4.83458e-15 -2.82723e-14 0)
(7.46833e-15 -2.60805e-14 0)
(9.39081e-15 -2.32898e-14 0)
(1.0575e-14 -2.02804e-14 0)
(1.1112e-14 -1.73454e-14 0)
(1.11496e-14 -1.46638e-14 0)
(1.08413e-14 -1.23166e-14 0)
(1.03184e-14 -1.03184e-14 0)
(1.70713e-13 -8.64671e-15 0)
(-1.80429e-13 -8.90129e-15 0)
(-1.23166e-14 -1.08413e-14 0)
(-1.32467e-14 -1.32467e-14 0)
(-1.39833e-14 -1.61928e-14 0)
(-1.43361e-14 -1.97196e-14 0)
(-1.40509e-14 -2.37805e-14 0)
(-1.28415e-14 -2.81692e-14 0)
(-1.04767e-14 -3.24506e-14 0)
(-6.91457e-15 -3.59616e-14 0)
(-2.42275e-15 -3.79678e-14 0)
(2.42275e-15 -3.79678e-14 0)
(6.91457e-15 -3.59616e-14 0)
(1.04767e-14 -3.24506e-14 0)
(1.28415e-14 -2.81692e-14 0)
(1.40509e-14 -2.37805e-14 0)
(1.43361e-14 -1.97196e-14 0)
(1.39833e-14 -1.61928e-14 0)
(1.32467e-14 -1.32467e-14 0)
(1.23166e-14 -1.08413e-14 0)
(1.80429e-13 -8.90129e-15 0)
(-1.90455e-13 -8.95439e-15 0)
(-1.46638e-14 -1.11496e-14 0)
(-1.61928e-14 -1.39833e-14 0)
(-1.76225e-14 -1.76225e-14 0)
(-1.86997e-14 -2.2226e-14 0)
(-1.90246e-14 -2.7869e-14 0)
(-1.80609e-14 -3.43976e-14 0)
(-1.52607e-14 -4.12219e-14 0)
(-1.03518e-14 -4.71759e-14 0)
(-3.68246e-15 -5.07309e-14 0)
(3.68246e-15 -5.07309e-14 0)
(1.03518e-14 -4.71759e-14 0)
(1.52607e-14 -4.12219e-14 0)
(1.80609e-14 -3.43976e-14 0)
(1.90246e-14 -2.7869e-14 0)
(1.86997e-14 -2.2226e-14 0)
(1.76225e-14 -1.76225e-14 0)
(1.61928e-14 -1.39833e-14 0)
(1.46638e-14 -1.11496e-14 0)
(1.90455e-13 -8.95439e-15 0)
(-2.00533e-13 -8.71948e-15 0)
(-1.73454e-14 -1.1112e-14 0)
(-1.97196e-14 -1.43361e-14 0)
(-2.2226e-14 -1.86997e-14 0)
(-2.45826e-14 -2.45826e-14 0)
(-2.62224e-14 -3.23646e-14 0)
(-2.61945e-14 -4.21983e-14 0)
(-2.32551e-14 -5.35108e-14 0)
(-1.64236e-14 -6.43329e-14 0)
(-5.97773e-15 -7.1259e-14 0)
(5.97773e-15 -7.1259e-14 0)
(1.64236e-14 -6.43329e-14 0)
(2.32551e-14 -5.35108e-14 0)
(2.61945e-14 -4.21983e-14 0)
(2.62224e-14 -3.23646e-14 0)
(2.45826e-14 -2.45826e-14 0)
(2.2226e-14 -1.86997e-14 0)
(1.97196e-14 -1.43361e-14 0)
(1.73454e-14 -1.1112e-14 0)
(2.00533e-13 -8.71948e-15 0)
(-2.10287e-13 -8.10649e-15 0)
(-2.02804e-14 -1.0575e-14 0)
(-2.37805e-14 -1.40509e-14 0)
(-2.7869e-14 -1.90246e-14 0)
(-3.23646e-14 -2.62224e-14 0)
(-3.66403e-14 -3.66403e-14 0)
(-3.9207e-14 -5.13689e-14 0)
(-3.73953e-14 -7.07352e-14 0)
(-2.81e-14 -9.20983e-14 0)
(-1.06086e-14 -1.07486e-13 0)
(1.06086e-14 -1.07486e-13 0)
(2.81e-14 -9.20983e-14 0)
(3.73953e-14 -7.07352e-14 0)
(3.9207e-14 -5.13689e-14 0)
(3.66403e-14 -3.66403e-14 0)
(3.23646e-14 -2.62224e-14 0)
(2.7869e-14 -1.90246e-14 0)
(2.37805e-14 -1.40509e-14 0)
(2.02804e-14 -1.0575e-14 0)
(2.10287e-13 -8.10649e-15 0)
(-2.19215e-13 -7.04143e-15 0)
(-2.32898e-14 -9.39081e-15 0)
(-2.81692e-14 -1.28415e-14 0)
(-3.43976e-14 -1.80609e-14 0)
(-4.21983e-14 -2.61945e-14 0)
(-5.13689e-14 -3.9207e-14 0)
(-6.02894e-14 -6.02894e-14 0)
(-6.39845e-14 -9.35603e-14 0)
(-5.31748e-14 -1.39602e-13 0)
(-2.13659e-14 -1.80993e-13 0)
(2.13659e-14 -1.80993e-13 0)
(5.31748e-14 -1.39602e-13 0)
(6.39845e-14 -9.35603e-14 0)
(6.02894e-14 -6.02894e-14 0)
(5.13689e-14 -3.9207e-14 0)
(4.21983e-14 -2.61945e-14 0)
(3.43976e-14 -1.80609e-14 0)
(2.81692e-14 -1.28415e-14 0)
(2.32898e-14 -9.39081e-15 0)
(2.19215e-13 -7.04143e-15 0)
(-2.26719e-13 -5.49423e-15 0)
(-2.60805e-14 -7.46833e-15 0)
(-3.24506e-14 -1.04767e-14 0)
(-4.12219e-14 -1.52607e-14 0)
(-5.35108e-14 -2.32551e-14 0)
(-7.07352e-14 -3.73953e-14 0)
(-9.35603e-14 -6.39845e-14 0)
(-1.16707e-13 -1.16707e-13 0)
(-1.15533e-13 -2.20517e-13 0)
(-5.2e-14 -3.69246e-13 0)
(5.2e-14 -3.69246e-13 0)
(1.15533e-13 -2.20517e-13 0)
(1.16707e-13 -1.16707e-13 0)
(9.35603e-14 -6.39845e-14 0)
(7.07352e-14 -3.73953e-14 0)
(5.35108e-14 -2.32551e-14 0)
(4.12219e-14 -1.52607e-14 0)
(3.24506e-14 -1.04767e-14 0)
(2.60805e-14 -7.46833e-15 0)
(2.26719e-13 -5.49423e-15 0)
(-2.32177e-13 -3.50681e-15 0)
(-2.82723e-14 -4.83458e-15 0)
(-3.59616e-14 -6.91457e-15 0)
(-4.71759e-14 -1.03518e-14 0)
(-6.43329e-14 -1.64236e-14 0)
(-9.20983e-14 -2.81e-14 0)
(-1.39602e-13 -5.31748e-14 0)
(-2.20517e-13 -1.15533e-13 0)
(-3.05714e-13 -3.05714e-13 0)
(-1.70095e-13 -1.07937e-12 0)
(1.70095e-13 -1.07937e-12 0)
(3.05714e-13 -3.05714e-13 0)
(2.20517e-13 -1.15533e-13 0)
(1.39602e-13 -5.31748e-14 0)
(9.20983e-14 -2.81e-14 0)
(6.43329e-14 -1.64236e-14 0)
(4.71759e-14 -1.03518e-14 0)
(3.59616e-14 -6.91457e-15 0)
(2.82723e-14 -4.83458e-15 0)
(2.32177e-13 -3.50681e-15 0)
(-2.3506e-13 -1.20678e-15 0)
(-2.94883e-14 -1.67629e-15 0)
(-3.79678e-14 -2.42275e-15 0)
(-5.07309e-14 -3.68246e-15 0)
(-7.1259e-14 -5.97773e-15 0)
(-1.07486e-13 -1.06086e-14 0)
(-1.80993e-13 -2.13659e-14 0)
(-3.69246e-13 -5.2e-14 0)
(-1.07937e-12 -1.70095e-13 0)
(-8.2566e-13 -8.2566e-13 0)
(8.2566e-13 -8.2566e-13 0)
(1.07937e-12 -1.70095e-13 0)
(3.69246e-13 -5.2e-14 0)
(1.80993e-13 -2.13659e-14 0)
(1.07486e-13 -1.06086e-14 0)
(7.1259e-14 -5.97773e-15 0)
(5.07309e-14 -3.68246e-15 0)
(3.79678e-14 -2.42275e-15 0)
(2.94883e-14 -1.67629e-15 0)
(2.3506e-13 -1.20678e-15 0)
(-2.3506e-13 1.20678e-15 0)
(-2.94883e-14 1.67629e-15 0)
(-3.79678e-14 2.42275e-15 0)
(-5.07309e-14 3.68246e-15 0)
(-7.1259e-14 5.97773e-15 0)
(-1.07486e-13 1.06086e-14 0)
(-1.80993e-13 2.13659e-14 0)
(-3.69246e-13 5.2e-14 0)
(-1.07937e-12 1.70095e-13 0)
(-8.2566e-13 8.2566e-13 0)
(8.2566e-13 8.2566e-13 0)
(1.07937e-12 1.70095e-13 0)
(3.69246e-13 5.2e-14 0)
(1.80993e-13 2.13659e-14 0)
(1.07486e-13 1.06086e-14 0)
(7.1259e-14 5.97773e-15 0)
(5.07309e-14 3.68246e-15 0)
(3.79678e-14 2.42275e-15 0)
(2.94883e-14 1.67629e-15 0)
(2.3506e-13 1.20678e-15 0)
(-2.32177e-13 3.50681e-15 0)
(-2.82723e-14 4.83458e-15 0)
(-3.59616e-14 6.91457e-15 0)
(-4.71759e-14 1.03518e-14 0)
(-6.43329e-14 1.64236e-14 0)
(-9.20983e-14 2.81e-14 0)
(-1.39602e-13 5.31748e-14 0)
(-2.20517e-13 1.15533e-13 0)
(-3.05714e-13 3.05714e-13 0)
(-1.70095e-13 1.07937e-12 0)
(1.70095e-13 1.07937e-12 0)
(3.05714e-13 3.05714e-13 0)
(2.20517e-13 1.15533e-13 0)
(1.39602e-13 5.31748e-14 0)
(9.20983e-14 2.81e-14 0)
(6.43329e-14 1.64236e-14 0)
(4.71759e-14 1.03518e-14 0)
(3.59616e-14 6.91457e-15 0)
(2.82723e-14 4.83458e-15 0)
(2.32177e-13 3.50681e-15 0)
(-2.26719e-13 5.49423e-15 0)
(-2.60805e-14 7.46833e-15 0)
(-3.24506e-14 1.04767e-14 0)
(-4.12219e-14 1.52607e-14 0)
(-5.35108e-14 2.32551e-14 0)
(-7.07352e-14 3.73953e-14 0)
(-9.35603e-14 6.39845e-14 0)
(-1.16707e-13 1.16707e-13 0)
(-1.15533e-13 2.20517e-13 0)
(-5.2e-14 3.69246e-13 0)
(5.2e-14 3.69246e-13 0)
(1.15533e-13 2.20517e-13 0)
(1.16707e-13 1.16707e-13 0)
(9.35603e-14 6.39845e-14 0)
(7.07352e-14 3.73953e-14 0)
(5.35108e-14 2.32551e-14 0)
(4.12219e-14 1.52607e-14 0)
(3.24506e-14 1.04767e-14 0)
(2.60805e-14 7.46833e-15 0)
(2.26719e-13 5.49423e-15 0)
(-2.19215e-13 7.04143e-15 0)
(-2.32898e-14 9.39081e-15 0)
(-2.81692e-14 1.28415e-14 0)
(-3.43976e-14 1.80609e-14 0)
(-4.21983e-14 2.61945e-14 0)
(-5.13689e-14 3.9207e-14 0)
(-6.02894e-14 6.02894e-14 0)
(-6.39845e-14 9.35603e-14 0)
(-5.31748e-14 1.39602e-13 0)
(-2.13659e-14 1.80993e-13 0)
(2.13659e-14 1.80993e-13 0)
(5.31748e-14 1.39602e-13 0)
(6.39845e-14 9.35603e-14 0)
(6.02894e-14 6.02894e-14 0)
(5.13689e-14 3.9207e-14 0)
(4.21983e-14 2.61945e-14 0)
(3.43976e-14 1.80609e-14 0)
(2.81692e-14 1.28415e-14 0)
(2.32898e-14 9.39081e-15 0)
(2.19215e-13 7.04143e-15 0)
(-2.10287e-13 8.10649e-15 0)
(-2.02804e-14 1.0575e-14 0)
(-2.37805e-14 1.40509e-14 0)
(-2.7869e-14 1.90246e-14 0)
(-3.23646e-14 2.62224e-14 0)
(-3.66403e-14 3.66403e-14 0)
(-3.9207e-14 5.13689e-14 0)
(-3.73953e-14 7.07352e-14 0)
(-2.81e-14 9.20983e-14 0)
(-1.06086e-14 1.07486e-13 0)
(1.06086e-14 1.07486e-13 0)
(2.81e-14 9.20983e-14 0)
(3.73953e-14 7.07352e-14 0)
(3.9207e-14 5.13689e-14 0)
(3.66403e-14 3.66403e-14 0)
(3.23646e-14 2.62224e-14 0)
(2.7869e-14 1.90246e-14 0)
(2.37805e-14 1.40509e-14 0)
(2.02804e-14 1.0575e-14 0)
(2.10287e-13 8.10649e-15 0)
(-2.00533e-13 8.71948e-15 0)
(-1.73454e-14 1.1112e-14 0)
(-1.97196e-14 1.43361e-14 0)
(-2.2226e-14 1.86997e-14 0)
(-2.45826e-14 2.45826e-14 0)
(-2.62224e-14 3.23646e-14 0)
(-2.61945e-14 4.21983e-14 0)
(-2.32551e-14 5.35108e-14 0)
(-1.64236e-14 6.43329e-14 0)
(-5.97773e-15 7.1259e-14 0)
(5.97773e-15 7.1259e-14 0)
(1.64236e-14 6.43329e-14 0)
(2.32551e-14 5.35108e-14 0)
(2.61945e-14 4.21983e-14 0)
(2.62224e-14 3.23646e-14 0)
(2.45826e-14 2.45826e-14 0)
(2.2226e-14 1.86997e-14 0)
(1.97196e-14 1.43361e-14 0)
(1.73454e-14 1.1112e-14 0)
(2.00533e-13 8.71948e-15 0)
(-1.90455e-13 8.95439e-15 0)
(-1.46638e-14 1.11496e-14 0)
(-1.61928e-14 1.39833e-14 0)
(-1.76225e-14 1.76225e-14 0)
(-1.86997e-14 2.2226e-14 0)
(-1.90246e-14 2.7869e-14 0)
(-1.80609e-14 3.43976e-14 0)
(-1.52607e-14 4.12219e-14 0)
(-1.03518e-14 4.71759e-14 0)
(-3.68246e-15 5.07309e-14 0)
(3.68246e-15 5.07309e-14 0)
(1.03518e-14 4.71759e-14 0)
(1.52607e-14 4.12219e-14 0)
(1.80609e-14 3.43976e-14 0)
(1.90246e-14 2.7869e-14 0)
(1.86997e-14 2.2226e-14 0)
(1.76225e-14 1.76225e-14 0)
(1.61928e-14 1.39833e-14 0)
(1.46638e-14 1.11496e-14 0)
(1.90455e-13 8.95439e-15 0)
(-1.80429e-13 8.90129e-15 0)
(-1.23166e-14 1.08413e-14 0)
(-1.32467e-14 1.32467e-14 0)
(-1.39833e-14 1.61928e-14 0)
(-1.43361e-14 1.97196e-14 0)
(-1.40509e-14 2.37805e-14 0)
(-1.28415e-14 2.81692e-14 0)
(-1.04767e-14 3.24506e-14 0)
(-6.91457e-15 3.59616e-14 0)
(-2.42275e-15 3.79678e-14 0)
(2.42275e-15 3.79678e-14 0)
(6.91457e-15 3.59616e-14 0)
(1.04767e-14 3.24506e-14 0)
(1.28415e-14 2.81692e-14 0)
(1.40509e-14 2.37805e-14 0)
(1.43361e-14 1.97196e-14 0)
(1.39833e-14 1.61928e-14 0)
(1.32467e-14 1.32467e-14 0)
(1.23166e-14 1.08413e-14 0)
(1.80429e-13 8.90129e-15 0)
(-1.70713e-13 8.64671e-15 0)
(-1.03184e-14 1.03184e-14 0)
(-1.08413e-14 1.23166e-14 0)
(-1.11496e-14 1.46638e-14 0)
(-1.1112e-14 1.73454e-14 0)
(-1.0575e-14 2.02804e-14 0)
(-9.39081e-15 2.32898e-14 0)
(-7.46833e-15 2.60805e-14 0)
(-4.83458e-15 2.82723e-14 0)
(-1.67629e-15 2.94883e-14 0)
(1.67629e-15 2.94883e-14 0)
(4.83458e-15 2.82723e-14 0)
(7.46833e-15 2.60805e-14 0)
(9.39081e-15 2.32898e-14 0)
(1.0575e-14 2.02804e-14 0)
(1.1112e-14 1.73454e-14 0)
(1.11496e-14 1.46638e-14 0)
(1.08413e-14 1.23166e-14 0)
(1.03184e-14 1.03184e-14 0)
(1.70713e-13 8.64671e-15 0)
(-1.61464e-13 1.61464e-13 0)
(-8.64671e-15 1.70713e-13 0)
(-8.90129e-15 1.80429e-13 0)
(-8.95439e-15 1.90455e-13 0)
(-8.71948e-15 2.00533e-13 0)
(-8.10649e-15 2.10287e-13 0)
(-7.04143e-15 2.19215e-13 0)
(-5.49423e-15 2.26719e-13 0)
(-3.50681e-15 2.32177e-13 0)
(-1.20678e-15 2.3506e-13 0)
(1.20678e-15 2.3506e-13 0)
(3.50681e-15 2.32177e-13 0)
(5.49423e-15 2.26719e-13 0)
(7.04143e-15 2.19215e-13 0)
(8.10649e-15 2.10287e-13 0)
(8.71948e-15 2.00533e-13 0)
(8.95439e-15 1.90455e-13 0)
(8.90129e-15 1.80429e-13 0)
(8.64671e-15 1.70713e-13 0)
(1.61464e-13 1.61464e-13 0)
)
;

boundaryField
{
    movingWall
    {
        type            fixedValue;
        value           uniform (1 0 0);
    }
    fixedWalls
    {
        type            fixedValue;
        value           uniform (0 0 0);
    }
    frontAndBack
    {
        type            empty;
    }
}


// ************************************************************************* //
