/*--------------------------------*- C++ -*----------------------------------*\
  =========                 |
  \\      /  F ield         | OpenFOAM: The Open Source CFD Toolbox
   \\    /   O peration     | Website:  https://openfoam.org
    \\  /    A nd           | Version:  dev
     \\/     M anipulation  |
\*---------------------------------------------------------------------------*/
FoamFile
{
    format      ascii;
    class       volScalarField;
    location    "100";
    object      p;
}
// * * * * * * * * * * * * * * * * * * * * * * * * * * * * * * * * * * * * * //

dimensions      [0 2 -2 0 0 0 0];

internalField   nonuniform List<scalar> 
2000
(
7.73434
7.44038
6.84524
6.3861
6.06611
5.84151
5.67805
5.55319
5.45271
5.36771
5.29266
5.22404
5.1596
5.09784
5.03781
4.97884
4.92048
4.86243
4.8045
4.74656
4.68852
4.63035
4.57202
4.51354
4.45492
4.39618
4.33733
4.2784
4.21942
4.16039
4.10135
4.0423
3.98325
3.92421
3.86518
3.80618
3.74719
3.68823
3.62929
3.57037
3.51147
3.45259
3.39373
3.33489
3.27606
3.21726
3.15847
3.0997
3.04095
2.98222
2.9235
2.86481
2.80613
2.74747
2.68883
2.63021
2.5716
2.513
2.45441
2.39583
2.33726
2.27869
2.22012
2.16154
2.10296
2.04436
1.98574
1.9271
1.86843
1.80973
1.75099
1.69222
1.63339
1.57452
1.5156
1.45663
1.39759
1.3385
1.27935
1.22015
1.16088
1.10156
1.04218
0.982754
0.923276
0.863751
0.804184
0.744579
0.68494
0.625273
0.565582
0.505871
0.446143
0.386402
0.326647
0.266882
0.207115
0.14726
0.0857568
0.0273667
7.32871
7.09895
6.67337
6.30347
6.02885
5.82807
5.67673
5.55743
5.45893
5.37412
5.29844
5.22893
5.16357
5.10101
5.0403
4.98078
4.92198
4.86359
4.80539
4.74723
4.68903
4.63073
4.5723
4.51374
4.45505
4.39626
4.33738
4.27842
4.21942
4.16038
4.10133
4.04227
3.98322
3.92418
3.86516
3.80616
3.74718
3.68822
3.62928
3.57037
3.51147
3.45259
3.39372
3.33488
3.27605
3.21724
3.15845
3.09968
3.04093
2.98219
2.92348
2.86478
2.80611
2.74745
2.68881
2.63019
2.57158
2.51298
2.4544
2.39583
2.33726
2.27869
2.22013
2.16155
2.10297
2.04438
1.98576
1.92713
1.86846
1.80976
1.75103
1.69225
1.63343
1.57456
1.51564
1.45667
1.39764
1.33855
1.2794
1.22019
1.16093
1.1016
1.04222
0.982792
0.923311
0.863783
0.804213
0.744605
0.684964
0.625294
0.5656
0.505886
0.446158
0.386417
0.326668
0.26692
0.207203
0.147476
0.0858262
0.0273356
6.93002
6.77495
6.50011
6.23028
6.00945
5.83505
5.69496
5.57879
5.47937
5.39191
5.31313
5.24067
5.17278
5.10815
5.04579
4.98497
4.92518
4.86601
4.80721
4.74858
4.69002
4.63144
4.5728
4.51408
4.45527
4.39639
4.33744
4.27844
4.2194
4.16034
4.10128
4.04222
3.98317
3.92414
3.86513
3.80614
3.74717
3.68822
3.62928
3.57037
3.51147
3.45259
3.39372
3.33488
3.27604
3.21723
3.15843
3.09965
3.04089
2.98215
2.92343
2.86473
2.80605
2.7474
2.68876
2.63014
2.57154
2.51295
2.45438
2.39581
2.33725
2.2787
2.22014
2.16157
2.103
2.04441
1.98581
1.92717
1.86852
1.80982
1.75109
1.69232
1.63351
1.57464
1.51572
1.45675
1.39772
1.33863
1.27948
1.22027
1.161
1.10168
1.04229
0.98286
0.923374
0.863842
0.804267
0.744653
0.685007
0.625331
0.565632
0.505914
0.446181
0.386438
0.32669
0.266946
0.207242
0.147609
0.0861598
0.0275177
6.5934
6.49439
6.32721
6.14299
5.9748
5.82925
5.70346
5.59322
5.49517
5.40681
5.32616
5.2516
5.18171
5.11534
5.05152
4.98951
4.92874
4.86879
4.80935
4.75022
4.69125
4.63235
4.57345
4.51454
4.45558
4.39658
4.33754
4.27847
4.21939
4.16031
4.10123
4.04216
3.98311
3.92408
3.86508
3.8061
3.74714
3.6882
3.62928
3.57037
3.51148
3.4526
3.39373
3.33487
3.27603
3.2172
3.15839
3.0996
3.04083
2.98209
2.92336
2.86466
2.80598
2.74733
2.68869
2.63008
2.57149
2.51291
2.45435
2.39579
2.33724
2.2787
2.22015
2.1616
2.10304
2.04446
1.98586
1.92724
1.86859
1.80991
1.75118
1.69242
1.6336
1.57474
1.51583
1.45685
1.39782
1.33873
1.27958
1.22037
1.1611
1.10177
1.04239
0.982947
0.923456
0.863918
0.804336
0.744716
0.685062
0.62538
0.565674
0.505949
0.446211
0.386463
0.326711
0.266963
0.207244
0.147635
0.0863576
0.0276488
6.34049
6.27959
6.18095
6.05868
5.93331
5.81389
5.7028
5.60011
5.50533
5.4178
5.33669
5.26106
5.18991
5.12226
5.05726
4.99421
4.93253
4.87181
4.81173
4.75206
4.69266
4.6334
4.57422
4.51508
4.45595
4.39682
4.33768
4.27854
4.2194
4.16028
4.10117
4.04209
3.98304
3.92402
3.86503
3.80606
3.74712
3.68819
3.62928
3.57038
3.51149
3.45261
3.39374
3.33488
3.27602
3.21719
3.15836
3.09956
3.04078
2.98202
2.92329
2.86458
2.8059
2.74724
2.68861
2.63001
2.57142
2.51285
2.4543
2.39576
2.33723
2.2787
2.22017
2.16163
2.10308
2.04452
1.98593
1.92732
1.86868
1.81
1.75128
1.69252
1.63372
1.57486
1.51594
1.45697
1.39794
1.33885
1.2797
1.22049
1.16122
1.10188
1.04249
0.983045
0.923547
0.864001
0.804412
0.744784
0.685122
0.625432
0.565718
0.505986
0.446241
0.386487
0.32673
0.266974
0.207233
0.147618
0.0864816
0.0277519
6.16053
6.12433
6.06743
5.98671
5.89317
5.79513
5.69737
5.60247
5.51186
5.42621
5.34558
5.26962
5.1977
5.12911
5.06312
4.99912
4.93656
4.87506
4.81431
4.75407
4.69419
4.63455
4.57506
4.51568
4.45636
4.39709
4.33784
4.27862
4.21943
4.16026
4.10113
4.04203
3.98298
3.92396
3.86497
3.80601
3.74708
3.68817
3.62927
3.57038
3.5115
3.45263
3.39375
3.33489
3.27603
3.21718
3.15834
3.09953
3.04073
2.98196
2.92322
2.8645
2.80582
2.74716
2.68853
2.62993
2.57135
2.51279
2.45426
2.39573
2.33721
2.27869
2.22018
2.16166
2.10312
2.04457
1.986
1.9274
1.86877
1.8101
1.75139
1.69263
1.63383
1.57498
1.51607
1.4571
1.39807
1.33898
1.27982
1.22061
1.16133
1.10199
1.04259
0.983142
0.923638
0.864085
0.804488
0.744852
0.685182
0.625483
0.565761
0.506022
0.446269
0.386508
0.326744
0.266981
0.207219
0.147594
0.0865721
0.0278407
6.03702
6.01618
5.98399
5.92989
5.85867
5.77702
5.69038
5.60261
5.51627
5.43291
5.35324
5.27737
5.20503
5.13573
5.0689
5.00401
4.94063
4.87836
4.81693
4.75611
4.69575
4.63571
4.57592
4.51629
4.45678
4.39737
4.33801
4.27871
4.21946
4.16025
4.10109
4.04198
3.98292
3.92389
3.86491
3.80596
3.74705
3.68815
3.62926
3.57039
3.51151
3.45264
3.39377
3.3349
3.27604
3.21718
3.15833
3.0995
3.04069
2.98191
2.92316
2.86443
2.80574
2.74708
2.68845
2.62985
2.57128
2.51274
2.45421
2.39569
2.33719
2.27869
2.22018
2.16168
2.10316
2.04462
1.98606
1.92747
1.86885
1.81019
1.75149
1.69274
1.63394
1.57509
1.51618
1.45721
1.39818
1.33909
1.27993
1.22071
1.16143
1.10209
1.04269
0.983231
0.92372
0.86416
0.804556
0.744912
0.685235
0.625529
0.565799
0.506052
0.446293
0.386525
0.326755
0.266984
0.207206
0.147572
0.0866408
0.0279152
5.95585
5.94414
5.92607
5.88827
5.83185
5.76191
5.68381
5.60188
5.51929
5.43813
5.35954
5.28397
5.21141
5.14158
5.07407
5.00844
4.94431
4.88135
4.81931
4.75796
4.69716
4.63677
4.57668
4.51684
4.45716
4.39762
4.33817
4.2788
4.21949
4.16025
4.10107
4.04194
3.98286
3.92384
3.86486
3.80592
3.74701
3.68812
3.62925
3.57038
3.51152
3.45266
3.39379
3.33492
3.27605
3.21718
3.15833
3.09949
3.04067
2.98188
2.92311
2.86438
2.80568
2.74702
2.68839
2.62979
2.57122
2.51268
2.45416
2.39566
2.33716
2.27868
2.22019
2.16169
2.10318
2.04466
1.98611
1.92753
1.86891
1.81026
1.75157
1.69282
1.63403
1.57518
1.51627
1.4573
1.39827
1.33918
1.28003
1.2208
1.16152
1.10217
1.04277
0.983304
0.923787
0.864222
0.804612
0.744962
0.685278
0.625565
0.56583
0.506077
0.446311
0.386538
0.326762
0.266986
0.207196
0.147555
0.086691
0.0279728
5.90694
5.90024
5.88972
5.86114
5.81364
5.7512
5.67885
5.60105
5.52124
5.44178
5.36408
5.28883
5.21618
5.146
5.07799
5.01182
4.94713
4.88365
4.82114
4.75939
4.69824
4.63757
4.57727
4.51725
4.45745
4.3978
4.33829
4.27886
4.21952
4.16025
4.10105
4.04191
3.98282
3.9238
3.86482
3.80588
3.74698
3.6881
3.62924
3.57038
3.51152
3.45267
3.3938
3.33493
3.27606
3.21719
3.15833
3.09948
3.04065
2.98185
2.92308
2.86434
2.80564
2.74697
2.68834
2.62974
2.57118
2.51264
2.45413
2.39563
2.33715
2.27867
2.22019
2.1617
2.1032
2.04468
1.98614
1.92757
1.86896
1.81031
1.75162
1.69288
1.63409
1.57525
1.51634
1.45737
1.39834
1.33925
1.28009
1.22087
1.16158
1.10223
1.04282
0.983356
0.923835
0.864265
0.804651
0.744997
0.685308
0.625591
0.565851
0.506093
0.446324
0.386547
0.326766
0.266986
0.207189
0.147543
0.0867236
0.0280116
5.88397
5.87948
5.87222
5.84778
5.80446
5.74567
5.67621
5.60054
5.5222
5.44367
5.36648
5.29141
5.21873
5.14838
5.08012
5.01365
4.94867
4.8849
4.82213
4.76016
4.69883
4.638
4.57758
4.51747
4.4576
4.3979
4.33835
4.2789
4.21954
4.16025
4.10104
4.04189
3.9828
3.92377
3.8648
3.80586
3.74697
3.68809
3.62923
3.57038
3.51153
3.45267
3.39381
3.33494
3.27607
3.2172
3.15833
3.09948
3.04065
2.98184
2.92306
2.86432
2.80562
2.74695
2.68832
2.62972
2.57116
2.51262
2.45411
2.39562
2.33714
2.27866
2.22019
2.1617
2.10321
2.0447
1.98616
1.92759
1.86899
1.81034
1.75165
1.69292
1.63413
1.57528
1.51637
1.45741
1.39838
1.33928
1.28012
1.2209
1.16161
1.10226
1.04285
0.983382
0.92386
0.864288
0.804671
0.745014
0.685323
0.625604
0.565862
0.506102
0.44633
0.386551
0.326768
0.266986
0.207185
0.147537
0.0867397
0.0280311
5.88397
5.87948
5.87222
5.84778
5.80446
5.74567
5.67621
5.60054
5.5222
5.44367
5.36648
5.29141
5.21873
5.14838
5.08012
5.01365
4.94866
4.8849
4.82213
4.76015
4.69882
4.638
4.57758
4.51747
4.45759
4.3979
4.33834
4.27889
4.21953
4.16025
4.10103
4.04189
3.9828
3.92377
3.8648
3.80586
3.74696
3.68809
3.62923
3.57038
3.51153
3.45267
3.39381
3.33494
3.27607
3.2172
3.15833
3.09948
3.04065
2.98184
2.92307
2.86432
2.80562
2.74695
2.68832
2.62972
2.57116
2.51262
2.45411
2.39562
2.33714
2.27866
2.22019
2.1617
2.10321
2.04469
1.98616
1.92759
1.86898
1.81034
1.75165
1.69291
1.63412
1.57528
1.51637
1.45741
1.39838
1.33928
1.28012
1.2209
1.16161
1.10226
1.04285
0.983381
0.923859
0.864287
0.80467
0.745014
0.685323
0.625604
0.565861
0.506102
0.44633
0.38655
0.326768
0.266986
0.207185
0.147537
0.0867396
0.0280309
5.90693
5.90024
5.88972
5.86114
5.81364
5.7512
5.67884
5.60104
5.52124
5.44178
5.36408
5.28882
5.21617
5.14599
5.07799
5.01181
4.94713
4.88365
4.82113
4.75938
4.69823
4.63756
4.57726
4.51724
4.45743
4.39779
4.33827
4.27885
4.21951
4.16024
4.10104
4.0419
3.98282
3.92379
3.86481
3.80588
3.74698
3.6881
3.62924
3.57038
3.51153
3.45267
3.3938
3.33493
3.27606
3.21719
3.15833
3.09949
3.04066
2.98185
2.92308
2.86434
2.80564
2.74697
2.68834
2.62974
2.57118
2.51264
2.45413
2.39563
2.33714
2.27867
2.22018
2.1617
2.1032
2.04468
1.98614
1.92757
1.86896
1.81031
1.75162
1.69288
1.63409
1.57524
1.51634
1.45737
1.39834
1.33925
1.28009
1.22086
1.16158
1.10223
1.04282
0.983353
0.923833
0.864263
0.804649
0.744995
0.685307
0.62559
0.56585
0.506093
0.446323
0.386546
0.326766
0.266986
0.207189
0.147543
0.0867235
0.0280111
5.95585
5.94414
5.92607
5.88827
5.83184
5.76191
5.6838
5.60187
5.51929
5.43813
5.35953
5.28396
5.21141
5.14157
5.07406
5.00843
4.9443
4.88134
4.81929
4.75795
4.69714
4.63675
4.57667
4.51682
4.45714
4.3976
4.33815
4.27878
4.21948
4.16024
4.10105
4.04192
3.98285
3.92383
3.86485
3.80591
3.74701
3.68812
3.62925
3.57038
3.51152
3.45266
3.39379
3.33492
3.27605
3.21719
3.15833
3.09949
3.04067
2.98188
2.92311
2.86438
2.80568
2.74702
2.68839
2.62979
2.57122
2.51268
2.45416
2.39566
2.33716
2.27867
2.22018
2.16169
2.10318
2.04465
1.9861
1.92752
1.86891
1.81026
1.75156
1.69282
1.63402
1.57517
1.51627
1.4573
1.39827
1.33918
1.28002
1.2208
1.16151
1.10217
1.04276
0.9833
0.923784
0.864218
0.804608
0.744959
0.685275
0.625563
0.565828
0.506075
0.44631
0.386537
0.326761
0.266986
0.207196
0.147555
0.0866908
0.027972
6.03701
6.01618
5.98399
5.92989
5.85867
5.77702
5.69037
5.6026
5.51626
5.4329
5.35323
5.27736
5.20502
5.13571
5.06888
5.004
4.94061
4.87834
4.81691
4.75609
4.69572
4.63569
4.57589
4.51626
4.45676
4.39734
4.33799
4.27869
4.21944
4.16023
4.10107
4.04196
3.9829
3.92388
3.8649
3.80596
3.74704
3.68814
3.62926
3.57039
3.51152
3.45265
3.39378
3.33491
3.27604
3.21719
3.15834
3.09951
3.0407
2.98192
2.92316
2.86444
2.80574
2.74708
2.68845
2.62985
2.57128
2.51273
2.4542
2.39569
2.33718
2.27868
2.22018
2.16167
2.10315
2.04461
1.98605
1.92746
1.86884
1.81018
1.75148
1.69273
1.63393
1.57508
1.51617
1.4572
1.39817
1.33908
1.27993
1.22071
1.16143
1.10208
1.04268
0.983225
0.923714
0.864155
0.804551
0.744908
0.685231
0.625525
0.565796
0.50605
0.446291
0.386524
0.326754
0.266984
0.207206
0.147572
0.0866408
0.0279142
6.16053
6.12432
6.06743
5.98671
5.89316
5.79513
5.69736
5.60246
5.51185
5.4262
5.34557
5.2696
5.19769
5.12909
5.06311
4.9991
4.93654
4.87504
4.81428
4.75404
4.69416
4.63452
4.57503
4.51565
4.45633
4.39705
4.33781
4.27859
4.2194
4.16023
4.1011
4.04201
3.98296
3.92394
3.86496
3.806
3.74707
3.68817
3.62927
3.57039
3.51151
3.45263
3.39376
3.3349
3.27604
3.21719
3.15835
3.09954
3.04074
2.98197
2.92322
2.86451
2.80582
2.74716
2.68853
2.62993
2.57135
2.51279
2.45425
2.39572
2.3372
2.27869
2.22017
2.16165
2.10311
2.04456
1.98599
1.92739
1.86876
1.81009
1.75138
1.69263
1.63382
1.57497
1.51606
1.45709
1.39806
1.33897
1.27981
1.2206
1.16132
1.10198
1.04259
0.983135
0.923631
0.864078
0.804482
0.744846
0.685177
0.625479
0.565757
0.506018
0.446266
0.386506
0.326743
0.26698
0.207218
0.147594
0.0865721
0.0278396
6.34049
6.27958
6.18094
6.05867
5.9333
5.81388
5.70279
5.6001
5.50532
5.41779
5.33668
5.26105
5.18989
5.12224
5.05724
4.99419
4.93251
4.87179
4.8117
4.75203
4.69262
4.63336
4.57418
4.51504
4.45591
4.39678
4.33764
4.2785
4.21937
4.16024
4.10114
4.04207
3.98302
3.924
3.86501
3.80605
3.74711
3.68819
3.62928
3.57038
3.5115
3.45262
3.39375
3.33489
3.27604
3.2172
3.15838
3.09957
3.04079
2.98203
2.92329
2.86458
2.8059
2.74725
2.68861
2.63001
2.57142
2.51285
2.4543
2.39576
2.33722
2.27869
2.22016
2.16162
2.10307
2.04451
1.98592
1.92731
1.86867
1.80999
1.75127
1.69251
1.63371
1.57485
1.51593
1.45696
1.39793
1.33884
1.27969
1.22048
1.16121
1.10187
1.04248
0.983036
0.923539
0.863993
0.804405
0.744777
0.685116
0.625426
0.565713
0.505982
0.446237
0.386484
0.326727
0.266973
0.207232
0.147619
0.0864818
0.0277508
6.59339
6.49438
6.3272
6.14298
5.97479
5.82924
5.70345
5.59321
5.49516
5.4068
5.32615
5.25158
5.18169
5.11532
5.0515
4.98948
4.92871
4.86876
4.80932
4.75018
4.69121
4.63231
4.57341
4.51449
4.45553
4.39653
4.33749
4.27843
4.21935
4.16027
4.10119
4.04213
3.98308
3.92406
3.86506
3.80609
3.74714
3.6882
3.62928
3.57038
3.51149
3.45261
3.39374
3.33489
3.27604
3.21722
3.15841
3.09962
3.04084
2.9821
2.92337
2.86467
2.80599
2.74733
2.68869
2.63008
2.57148
2.51291
2.45434
2.39579
2.33724
2.27869
2.22014
2.16159
2.10303
2.04445
1.98585
1.92723
1.86858
1.8099
1.75117
1.69241
1.63359
1.57473
1.51581
1.45684
1.39781
1.33872
1.27957
1.22036
1.16109
1.10176
1.04238
0.982937
0.923446
0.863908
0.804327
0.744707
0.685054
0.625373
0.565667
0.505943
0.446206
0.386459
0.326708
0.266961
0.207243
0.147635
0.0863579
0.0276479
6.93002
6.77494
6.50011
6.23027
6.00945
5.83504
5.69495
5.57878
5.47936
5.3919
5.31312
5.24065
5.17276
5.10812
5.04576
4.98495
4.92514
4.86597
4.80717
4.74854
4.68998
4.63139
4.57275
4.51403
4.45522
4.39634
4.33739
4.27839
4.21936
4.1603
4.10124
4.04219
3.98314
3.92412
3.86511
3.80612
3.74716
3.68821
3.62929
3.57038
3.51148
3.4526
3.39374
3.33489
3.27606
3.21724
3.15844
3.09966
3.0409
2.98216
2.92344
2.86474
2.80606
2.7474
2.68876
2.63014
2.57154
2.51295
2.45437
2.39581
2.33725
2.27869
2.22013
2.16157
2.10299
2.0444
1.98579
1.92716
1.8685
1.80981
1.75108
1.69231
1.63349
1.57463
1.51571
1.45674
1.39771
1.33862
1.27947
1.22026
1.16099
1.10166
1.04228
0.982848
0.923363
0.863831
0.804256
0.744644
0.684998
0.625323
0.565624
0.505907
0.446175
0.386433
0.326686
0.266943
0.20724
0.147609
0.0861599
0.0275168
7.3287
7.09894
6.67336
6.30346
6.02885
5.82806
5.67672
5.55742
5.45892
5.37411
5.29843
5.22891
5.16355
5.10099
5.04027
4.98075
4.92195
4.86356
4.80535
4.74719
4.68898
4.63068
4.57224
4.51368
4.455
4.39621
4.33732
4.27837
4.21937
4.16034
4.10129
4.04224
3.98319
3.92416
3.86514
3.80615
3.74717
3.68822
3.62929
3.57037
3.51148
3.4526
3.39374
3.3349
3.27607
3.21726
3.15847
3.0997
3.04094
2.98221
2.92349
2.86479
2.80611
2.74745
2.68881
2.63019
2.57158
2.51298
2.4544
2.39582
2.33725
2.27869
2.22012
2.16155
2.10296
2.04437
1.98575
1.92711
1.86845
1.80975
1.75102
1.69224
1.63342
1.57455
1.51563
1.45666
1.39762
1.33853
1.27939
1.22018
1.16091
1.10159
1.04221
0.98278
0.923299
0.863771
0.804202
0.744594
0.684954
0.625284
0.565591
0.505878
0.44615
0.386411
0.326663
0.266916
0.2072
0.147475
0.0858257
0.0273346
7.73433
7.44037
6.84523
6.38609
6.06611
5.8415
5.67804
5.55318
5.45269
5.3677
5.29265
5.22402
5.15957
5.09782
5.03778
4.9788
4.92044
4.86239
4.80446
4.74651
4.68847
4.6303
4.57197
4.51349
4.45487
4.39612
4.33727
4.27835
4.21937
4.16035
4.10131
4.04226
3.98322
3.92418
3.86516
3.80616
3.74719
3.68823
3.62929
3.57038
3.51148
3.4526
3.39375
3.3349
3.27608
3.21727
3.15849
3.09972
3.04096
2.98223
2.92351
2.86482
2.80614
2.74748
2.68883
2.63021
2.57159
2.513
2.45441
2.39583
2.33726
2.27868
2.22011
2.16154
2.10295
2.04435
1.98573
1.92709
1.86842
1.80972
1.75098
1.6922
1.63338
1.57451
1.51559
1.45661
1.39758
1.33849
1.27934
1.22013
1.16087
1.10155
1.04217
0.982741
0.923263
0.863738
0.804172
0.744567
0.684929
0.625263
0.565572
0.505862
0.446135
0.386395
0.326641
0.266877
0.207111
0.147259
0.085756
0.0273658
)
;

boundaryField
{
    inlet
    {
        type            zeroGradient;
    }
    outlet
    {
        type            fixedValue;
        value           uniform 0;
    }
    frontAndBack
    {
        type            empty;
    }
    walls
    {
        type            zeroGradient;
    }
}


// ************************************************************************* //
