/*--------------------------------*- C++ -*----------------------------------*\
  =========                 |
  \\      /  F ield         | OpenFOAM: The Open Source CFD Toolbox
   \\    /   O peration     | Website:  https://openfoam.org
    \\  /    A nd           | Version:  dev
     \\/     M anipulation  |
\*---------------------------------------------------------------------------*/
FoamFile
{
    format      ascii;
    class       surfaceScalarField;
    location    "100";
    object      phi;
}
// * * * * * * * * * * * * * * * * * * * * * * * * * * * * * * * * * * * * * //

dimensions      [0 3 -1 0 0 0 0];

internalField   nonuniform List<scalar> 
3880
(
2.68025e-05
4.62301e-06
2.07107e-05
7.44661e-06
1.7902e-05
6.7371e-06
1.52704e-05
5.44422e-06
1.31645e-05
4.18002e-06
1.15947e-05
3.11217e-06
1.04596e-05
2.27334e-06
9.6489e-06
1.64317e-06
9.07146e-06
1.1827e-06
8.65912e-06
8.51225e-07
8.36345e-06
6.13736e-07
8.15072e-06
4.43076e-07
7.99758e-06
3.19479e-07
7.88769e-06
2.2913e-07
7.80945e-06
1.62579e-07
7.75448e-06
1.13385e-07
7.71661e-06
7.71014e-08
7.69123e-06
5.05734e-08
7.67491e-06
3.14837e-08
7.66505e-06
1.80719e-08
7.65968e-06
8.96721e-09
7.65735e-06
3.08725e-09
7.65699e-06
-4.25382e-10
7.6578e-06
-2.24593e-09
7.65925e-06
-2.90193e-09
7.66096e-06
-2.80073e-09
7.6627e-06
-2.252e-09
7.66434e-06
-1.48756e-09
7.66583e-06
-6.77756e-10
7.66717e-06
5.63801e-11
7.66841e-06
6.33643e-10
7.6696e-06
1.00493e-09
7.67081e-06
1.14751e-09
7.67213e-06
1.06068e-09
7.67361e-06
7.61694e-10
7.67532e-06
2.81606e-10
7.6773e-06
-3.38622e-10
7.67958e-06
-1.05191e-09
7.68217e-06
-1.80894e-09
7.68508e-06
-2.56178e-09
7.68828e-06
-3.26706e-09
7.69177e-06
-3.88828e-09
7.6955e-06
-4.39762e-09
7.69945e-06
-4.77696e-09
7.70357e-06
-5.01801e-09
7.70782e-06
-5.12169e-09
7.71215e-06
-5.09688e-09
7.71652e-06
-4.95895e-09
7.72088e-06
-4.72796e-09
7.72519e-06
-4.42671e-09
7.7294e-06
-4.07867e-09
7.73347e-06
-3.70623e-09
7.73736e-06
-3.32932e-09
7.74102e-06
-2.96452e-09
7.74441e-06
-2.62431e-09
7.7475e-06
-2.31676e-09
7.75022e-06
-2.04543e-09
7.75256e-06
-1.80968e-09
7.75445e-06
-1.6053e-09
7.75586e-06
-1.4253e-09
7.75675e-06
-1.26066e-09
7.75709e-06
-1.10115e-09
7.75683e-06
-9.3611e-10
7.75596e-06
-7.55237e-10
7.75444e-06
-5.49267e-10
7.75226e-06
-3.10546e-10
7.74941e-06
-3.33874e-11
7.74587e-06
2.85748e-10
7.74166e-06
6.48191e-10
7.73678e-06
1.05309e-09
7.73125e-06
1.49747e-09
7.72511e-06
1.97645e-09
7.71838e-06
2.48341e-09
7.71112e-06
3.01035e-09
7.70338e-06
3.5482e-09
7.69522e-06
4.08717e-09
7.68671e-06
4.61707e-09
7.67793e-06
5.12762e-09
7.66896e-06
5.60868e-09
7.65989e-06
6.05053e-09
7.65081e-06
6.44408e-09
7.64182e-06
6.78111e-09
7.63301e-06
7.05449e-09
7.62447e-06
7.2583e-09
7.61629e-06
7.38804e-09
7.60856e-06
7.44073e-09
7.60136e-06
7.41495e-09
7.59475e-06
7.31082e-09
7.58879e-06
7.12965e-09
7.58352e-06
6.87322e-09
7.57897e-06
6.54221e-09
7.57517e-06
6.13322e-09
7.57211e-06
5.63341e-09
7.56978e-06
5.01113e-09
7.5682e-06
4.19934e-09
7.56775e-06
3.06469e-09
7.57138e-06
1.36462e-09
7.56666e-06
-1.21803e-09
7.56958e-06
-2.33566e-09
-1.81213e-09
4.39922e-05
6.51236e-06
4.05801e-05
1.12105e-05
3.76958e-05
1.09555e-05
3.44736e-05
9.33459e-06
3.14547e-05
7.46423e-06
2.89266e-05
5.754e-06
2.69301e-05
4.33742e-06
2.54006e-05
3.22695e-06
2.42459e-05
2.38442e-06
2.33799e-05
1.75661e-06
2.27321e-05
1.29231e-06
2.22488e-05
9.49053e-07
2.18893e-05
6.94319e-07
2.16235e-05
5.04365e-07
2.14287e-05
3.62254e-07
2.12876e-05
2.5596e-07
2.11869e-05
1.76837e-07
2.11165e-05
1.18527e-07
2.10686e-05
7.62225e-08
2.10371e-05
4.61951e-08
2.10174e-05
2.55083e-08
2.10061e-05
1.18313e-08
2.10004e-05
3.3175e-09
2.09985e-05
-1.48435e-09
2.0999e-05
-3.70258e-09
2.10008e-05
-4.20411e-09
2.10034e-05
-3.64602e-09
2.10063e-05
-2.51958e-09
2.10093e-05
-1.18626e-09
2.10124e-05
9.45408e-11
2.10155e-05
1.14445e-09
2.10187e-05
1.85022e-09
2.10222e-05
2.15206e-09
2.10262e-05
2.03462e-09
2.10306e-05
1.51908e-09
2.10358e-05
6.55589e-10
2.10417e-05
-4.84177e-10
2.10485e-05
-1.81452e-09
2.10561e-05
-3.24326e-09
2.10646e-05
-4.67888e-09
2.10739e-05
-6.03683e-09
2.1084e-05
-7.24469e-09
2.10948e-05
-8.246e-09
2.11061e-05
-9.00259e-09
2.1118e-05
-9.49519e-09
2.11302e-05
-9.72255e-09
2.11427e-05
-9.69949e-09
2.11553e-05
-9.45404e-09
2.11678e-05
-9.02398e-09
2.11802e-05
-8.45291e-09
2.11924e-05
-7.78633e-09
2.12041e-05
-7.06829e-09
2.12153e-05
-6.3386e-09
2.12259e-05
-5.63074e-09
2.12357e-05
-4.97035e-09
2.12446e-05
-4.37438e-09
2.12525e-05
-3.85094e-09
2.12593e-05
-3.39986e-09
2.12647e-05
-3.0138e-09
2.12688e-05
-2.67965e-09
2.12713e-05
-2.3801e-09
2.12723e-05
-2.0952e-09
2.12714e-05
-1.80396e-09
2.12688e-05
-1.48595e-09
2.12643e-05
-1.12261e-09
2.12579e-05
-6.98333e-10
2.12495e-05
-2.01222e-10
2.1239e-05
3.76507e-10
2.12266e-05
1.03832e-09
2.12123e-05
1.78335e-09
2.1196e-05
2.60657e-09
2.11779e-05
3.49909e-09
2.11582e-05
4.44865e-09
2.11368e-05
5.44024e-09
2.11141e-05
6.45671e-09
2.10902e-05
7.47946e-09
2.10652e-05
8.48902e-09
2.10395e-05
9.46569e-09
2.10133e-05
1.039e-08
2.09867e-05
1.12431e-08
2.09602e-05
1.20077e-08
2.0934e-05
1.26677e-08
2.09084e-05
1.32092e-08
2.08835e-05
1.36208e-08
2.08598e-05
1.38935e-08
2.08374e-05
1.40213e-08
2.08166e-05
1.40015e-08
2.07975e-05
1.3834e-08
2.07804e-05
1.35216e-08
2.07653e-05
1.30686e-08
2.07523e-05
1.24785e-08
2.07415e-05
1.17507e-08
2.07327e-05
1.08726e-08
2.0726e-05
9.80969e-09
2.07211e-05
8.48894e-09
2.07182e-05
6.77267e-09
2.07217e-05
4.39306e-09
2.07128e-05
6.20028e-10
2.07164e-05
-3.16373e-09
-3.20223e-09
4.96949e-05
6.2157e-06
4.93535e-05
1.1589e-05
4.82358e-05
1.24339e-05
4.62639e-05
1.136e-05
4.39554e-05
9.60911e-06
4.17328e-05
7.7755e-06
3.97955e-05
6.11929e-06
3.81957e-05
4.7303e-06
3.69139e-05
3.61413e-06
3.59047e-05
2.73945e-06
3.5119e-05
2.06358e-06
3.45128e-05
1.54497e-06
3.40489e-05
1.14831e-06
3.36973e-05
8.45513e-07
3.34336e-05
6.14991e-07
3.32382e-05
4.40351e-07
3.30955e-05
3.09093e-07
3.29931e-05
2.11567e-07
3.29211e-05
1.40207e-07
3.28717e-05
8.90159e-08
3.2839e-05
5.32074e-08
3.28184e-05
2.89681e-08
3.28063e-05
1.32791e-08
3.28001e-05
3.77634e-09
3.27979e-05
-1.36781e-09
3.27983e-05
-3.54918e-09
3.28003e-05
-3.82079e-09
3.28034e-05
-2.96804e-09
3.2807e-05
-1.56983e-09
3.28111e-05
-4.60228e-11
3.28156e-05
1.30731e-09
3.28205e-05
2.29224e-09
3.28261e-05
2.79077e-09
3.28324e-05
2.75131e-09
3.28397e-05
2.17763e-09
3.2848e-05
1.11849e-09
3.28576e-05
-3.4241e-10
3.28685e-05
-2.0969e-09
3.28808e-05
-4.02284e-09
3.28944e-05
-5.99448e-09
3.29094e-05
-7.89199e-09
3.29255e-05
-9.60958e-09
3.29428e-05
-1.10618e-08
3.29611e-05
-1.21876e-08
3.29801e-05
-1.2952e-08
3.29997e-05
-1.33458e-08
3.30197e-05
-1.33837e-08
3.30399e-05
-1.31002e-08
3.30602e-05
-1.25449e-08
3.30801e-05
-1.17774e-08
3.30997e-05
-1.08614e-08
3.31187e-05
-9.86e-09
3.31368e-05
-8.83151e-09
3.31538e-05
-7.82605e-09
3.31697e-05
-6.88301e-09
3.31841e-05
-6.02958e-09
3.31968e-05
-5.28037e-09
3.32076e-05
-4.63802e-09
3.32164e-05
-4.09451e-09
3.32229e-05
-3.63305e-09
3.32269e-05
-3.23019e-09
3.32284e-05
-2.85815e-09
3.3227e-05
-2.48719e-09
3.32226e-05
-2.08783e-09
3.32152e-05
-1.63282e-09
3.32047e-05
-1.0987e-09
3.31909e-05
-4.66939e-10
3.31739e-05
2.75268e-10
3.31537e-05
1.13463e-09
3.31303e-05
2.11165e-09
3.31038e-05
3.2008e-09
3.30744e-05
4.39098e-09
3.30423e-05
5.66619e-09
3.30076e-05
7.00639e-09
3.29707e-05
8.38836e-09
3.29318e-05
9.78667e-09
3.28914e-05
1.11745e-08
3.28497e-05
1.25245e-08
3.28072e-05
1.38096e-08
3.27643e-05
1.50036e-08
3.27214e-05
1.60818e-08
3.26791e-05
1.70218e-08
3.26377e-05
1.7804e-08
3.25977e-05
1.84119e-08
3.25595e-05
1.88327e-08
3.25235e-05
1.90576e-08
3.24902e-05
1.90822e-08
3.24597e-05
1.89064e-08
3.24324e-05
1.8534e-08
3.24084e-05
1.79719e-08
3.23879e-05
1.72283e-08
3.23708e-05
1.63091e-08
3.23571e-05
1.52125e-08
3.23466e-05
1.39214e-08
3.23389e-05
1.23973e-08
3.23338e-05
1.0575e-08
3.23355e-05
8.31707e-09
3.23258e-05
4.73629e-09
3.23244e-05
-6.14409e-10
-1.9297e-09
5.14408e-05
5.21126e-06
5.27499e-05
1.04233e-05
5.32305e-05
1.20923e-05
5.28088e-05
1.17964e-05
5.17792e-05
1.05457e-05
5.04964e-05
8.95236e-06
4.92004e-05
7.34752e-06
4.80162e-05
5.89091e-06
4.69925e-05
4.64339e-06
4.6137e-05
3.61236e-06
4.54382e-05
2.77952e-06
4.48772e-05
2.11693e-06
4.44335e-05
1.59545e-06
4.40875e-05
1.18861e-06
4.38214e-05
8.73858e-07
4.36197e-05
6.32583e-07
4.3469e-05
4.49621e-07
4.33581e-05
3.12659e-07
4.32781e-05
2.11697e-07
4.32214e-05
1.38625e-07
4.31824e-05
8.689e-08
4.31564e-05
5.12422e-08
4.314e-05
2.75223e-08
4.31304e-05
1.24801e-08
4.31257e-05
3.61193e-09
4.31244e-05
-9.85056e-10
4.31255e-05
-2.74034e-09
4.31281e-05
-2.71762e-09
4.31319e-05
-1.702e-09
4.31366e-05
-2.67566e-10
4.31422e-05
1.17251e-09
4.31485e-05
2.33055e-09
4.31559e-05
3.02013e-09
4.31643e-05
3.13905e-09
4.31741e-05
2.65598e-09
4.31853e-05
1.59872e-09
4.31982e-05
4.28539e-11
4.32129e-05
-1.90005e-09
4.32293e-05
-4.09494e-09
4.32476e-05
-6.3961e-09
4.32676e-05
-8.6593e-09
4.32892e-05
-1.07526e-08
4.33124e-05
-1.25648e-08
4.33369e-05
-1.4012e-08
4.33624e-05
-1.50408e-08
4.33888e-05
-1.56292e-08
4.34158e-05
-1.57851e-08
4.3443e-05
-1.5542e-08
4.34703e-05
-1.49539e-08
4.34974e-05
-1.40889e-08
4.35239e-05
-1.30228e-08
4.35496e-05
-1.18328e-08
4.35741e-05
-1.05919e-08
4.35973e-05
-9.36467e-09
4.36187e-05
-8.20318e-09
4.36382e-05
-7.14528e-09
4.36555e-05
-6.21361e-09
4.36702e-05
-5.4159e-09
4.3682e-05
-4.74636e-09
4.36908e-05
-4.18767e-09
4.36962e-05
-3.71355e-09
4.3698e-05
-3.29154e-09
4.3696e-05
-2.88593e-09
4.369e-05
-2.46051e-09
4.36798e-05
-1.98101e-09
4.36653e-05
-1.41718e-09
4.36465e-05
-7.44307e-10
4.36232e-05
5.56234e-11
4.35956e-05
9.93312e-10
4.35637e-05
2.07189e-09
4.35276e-05
3.28708e-09
4.34876e-05
4.62771e-09
4.34438e-05
6.07648e-09
4.33967e-05
7.61095e-09
4.33465e-05
9.20463e-09
4.32937e-05
1.0828e-08
4.32388e-05
1.24498e-08
4.31822e-05
1.40376e-08
4.31246e-05
1.55593e-08
4.30665e-05
1.69836e-08
4.30085e-05
1.82809e-08
4.29512e-05
1.94242e-08
4.28953e-05
2.03896e-08
4.28414e-05
2.11569e-08
4.279e-05
2.17102e-08
4.27416e-05
2.20386e-08
4.26969e-05
2.21359e-08
4.26561e-05
2.20014e-08
4.26197e-05
2.16394e-08
4.25879e-05
2.10588e-08
4.25607e-05
2.02713e-08
4.25383e-05
1.92898e-08
4.25205e-05
1.81242e-08
4.2507e-05
1.67773e-08
4.24973e-05
1.52436e-08
4.24909e-05
1.35127e-08
4.24917e-05
1.15517e-08
4.24825e-05
8.54515e-09
4.24798e-05
3.32819e-09
1.08939e-09
5.17859e-05
4.04535e-06
5.37183e-05
8.58721e-06
5.51864e-05
1.06094e-05
5.60008e-05
1.09444e-05
5.62147e-05
1.02692e-05
5.60234e-05
9.0922e-06
5.56111e-05
7.7403e-06
5.5108e-05
6.40469e-06
5.45936e-05
5.18536e-06
5.41113e-05
4.12501e-06
5.36823e-05
3.23254e-06
5.33144e-05
2.49879e-06
5.30075e-05
1.90625e-06
5.27575e-05
1.43477e-06
5.2558e-05
1.06459e-06
5.24017e-05
7.77669e-07
5.22812e-05
5.58243e-07
5.21899e-05
3.92825e-07
5.21219e-05
2.70074e-07
5.20721e-05
1.80574e-07
5.20364e-05
1.16614e-07
5.20116e-05
7.19696e-08
5.1995e-05
4.16924e-08
5.19846e-05
2.19156e-08
5.19789e-05
9.66514e-09
5.19767e-05
2.68737e-09
5.1977e-05
-7.05291e-10
5.19793e-05
-1.7658e-09
5.19832e-05
-1.41942e-09
5.19883e-05
-3.46798e-10
5.19947e-05
9.54692e-10
5.20023e-05
2.12849e-09
5.20112e-05
2.93045e-09
5.20215e-05
3.20965e-09
5.20335e-05
2.89435e-09
5.20473e-05
1.98064e-09
5.20632e-05
5.21539e-10
5.20811e-05
-1.38471e-09
5.21012e-05
-3.6078e-09
5.21235e-05
-5.99911e-09
5.2148e-05
-8.40523e-09
5.21744e-05
-1.06804e-08
5.22028e-05
-1.26969e-08
5.22327e-05
-1.43536e-08
5.22641e-05
-1.5581e-08
5.22965e-05
-1.63431e-08
5.23297e-05
-1.66371e-08
5.23634e-05
-1.64895e-08
5.23971e-05
-1.59513e-08
5.24306e-05
-1.50915e-08
5.24634e-05
-1.39898e-08
5.24953e-05
-1.27301e-08
5.25258e-05
-1.13937e-08
5.25546e-05
-1.00541e-08
5.25813e-05
-8.77287e-09
5.26055e-05
-7.59632e-09
5.2627e-05
-6.5546e-09
5.26452e-05
-5.66141e-09
5.26599e-05
-4.91515e-09
5.26708e-05
-4.30086e-09
5.26774e-05
-3.79285e-09
5.26796e-05
-3.3577e-09
5.2677e-05
-2.9574e-09
5.26694e-05
-2.5524e-09
5.26566e-05
-2.10443e-09
5.26384e-05
-1.57883e-09
5.26148e-05
-9.46495e-10
5.25858e-05
-1.8521e-10
5.25513e-05
7.19434e-10
5.25115e-05
1.77368e-09
5.24665e-05
2.97566e-09
5.24167e-05
4.31591e-09
5.23622e-05
5.77812e-09
5.23036e-05
7.34015e-09
5.22412e-05
8.97518e-09
5.21756e-05
1.06529e-08
5.21074e-05
1.23405e-08
5.20373e-05
1.40041e-08
5.19659e-05
1.56096e-08
5.18939e-05
1.71235e-08
5.18221e-05
1.85143e-08
5.17513e-05
1.97528e-08
5.16823e-05
2.08129e-08
5.16157e-05
2.16726e-08
5.15524e-05
2.23144e-08
5.1493e-05
2.27256e-08
5.14382e-05
2.28991e-08
5.13883e-05
2.28333e-08
5.13439e-05
2.25322e-08
5.13052e-05
2.20051e-08
5.12725e-05
2.12659e-08
5.12456e-05
2.03319e-08
5.12245e-05
1.92213e-08
5.12088e-05
1.7951e-08
5.11979e-05
1.65352e-08
5.11909e-05
1.49841e-08
5.11916e-05
1.33054e-08
5.11836e-05
1.08121e-08
5.11809e-05
6.17256e-09
3.64346e-09
5.16581e-05
2.97362e-06
5.36833e-05
6.62327e-06
5.56284e-05
8.59297e-06
5.72492e-05
9.27098e-06
5.84304e-05
9.05066e-06
5.92102e-05
8.29549e-06
5.96784e-05
7.27759e-06
5.99251e-05
6.17975e-06
6.00239e-05
5.1146e-06
6.00293e-05
4.14445e-06
5.99805e-05
3.29769e-06
5.99042e-05
2.58129e-06
5.9818e-05
1.98965e-06
5.9733e-05
1.51071e-06
5.96553e-05
1.12968e-06
5.95877e-05
8.31396e-07
5.95309e-05
6.01497e-07
5.94844e-05
4.27077e-07
5.94473e-05
2.96892e-07
5.94181e-05
2.01398e-07
5.93958e-05
1.32663e-07
5.93792e-05
8.42315e-08
5.93674e-05
5.09471e-08
5.93595e-05
2.87737e-08
5.93548e-05
1.46076e-08
5.93529e-05
6.10077e-09
5.93533e-05
1.49954e-09
5.93557e-05
-4.95287e-10
5.93597e-05
-8.42879e-10
5.93654e-05
-2.51585e-10
5.93725e-05
7.55646e-10
5.93811e-05
1.79615e-09
5.93914e-05
2.5978e-09
5.94034e-05
2.97968e-09
5.94174e-05
2.83925e-09
5.94335e-05
2.14263e-09
5.94519e-05
9.15397e-10
5.94727e-05
-7.67928e-10
5.9496e-05
-2.79594e-09
5.95217e-05
-5.03338e-09
5.95499e-05
-7.33441e-09
5.95805e-05
-9.55539e-09
5.96132e-05
-1.15662e-08
5.96478e-05
-1.32597e-08
5.96842e-05
-1.45576e-08
5.97218e-05
-1.54139e-08
5.97604e-05
-1.58155e-08
5.97996e-05
-1.57791e-08
5.9839e-05
-1.53472e-08
5.98781e-05
-1.45822e-08
5.99166e-05
-1.35594e-08
5.99539e-05
-1.23603e-08
5.99898e-05
-1.1066e-08
6.00236e-05
-9.7513e-09
6.00551e-05
-8.48045e-09
6.00836e-05
-7.30369e-09
6.01088e-05
-6.25556e-09
6.01303e-05
-5.35439e-09
6.01477e-05
-4.60307e-09
6.01604e-05
-3.9907e-09
6.01682e-05
-3.49499e-09
6.01707e-05
-3.08512e-09
6.01676e-05
-2.72479e-09
6.01585e-05
-2.37529e-09
6.01433e-05
-1.99834e-09
6.01219e-05
-1.55854e-09
6.0094e-05
-1.02544e-09
6.00597e-05
-3.74993e-10
6.00191e-05
4.09392e-10
5.99722e-05
1.33641e-09
5.99192e-05
2.40681e-09
5.98606e-05
3.61379e-09
5.97965e-05
4.94369e-09
5.97276e-05
6.37694e-09
5.96544e-05
7.88909e-09
5.95774e-05
9.45201e-09
5.94975e-05
1.1035e-08
5.94153e-05
1.26057e-08
5.93316e-05
1.41317e-08
5.92474e-05
1.55808e-08
5.91634e-05
1.69223e-08
5.90807e-05
1.81279e-08
5.90002e-05
1.91722e-08
5.89226e-05
2.00334e-08
5.88489e-05
2.06941e-08
5.87799e-05
2.11414e-08
5.87162e-05
2.13678e-08
5.86586e-05
2.13709e-08
5.86074e-05
2.11539e-08
5.8563e-05
2.07254e-08
5.85256e-05
2.00994e-08
5.84951e-05
1.92941e-08
5.84715e-05
1.83312e-08
5.84542e-05
1.72335e-08
5.84426e-05
1.60226e-08
5.84356e-05
1.47105e-08
5.84367e-05
1.33114e-08
5.84301e-05
1.1286e-08
5.84279e-05
7.42368e-09
5.04674e-09
5.1415e-05
2.06009e-06
5.33164e-05
4.76171e-06
5.54222e-05
6.40713e-06
5.74953e-05
7.15245e-06
5.9332e-05
7.19908e-06
6.08556e-05
6.77783e-06
6.20647e-05
6.08654e-06
6.29934e-05
5.27341e-06
6.36876e-05
4.44007e-06
6.41943e-05
3.65035e-06
6.45556e-05
2.93986e-06
6.48076e-05
2.32439e-06
6.49795e-05
1.80667e-06
6.50939e-05
1.38154e-06
6.51679e-05
1.03959e-06
6.52142e-05
7.69612e-07
6.52415e-05
5.60154e-07
6.52561e-05
4.00378e-07
6.52626e-05
2.80551e-07
6.5264e-05
1.92234e-07
6.52625e-05
1.28321e-07
6.52597e-05
8.29794e-08
6.52566e-05
5.15291e-08
6.5254e-05
3.0297e-08
6.52525e-05
1.64574e-08
6.52523e-05
7.87466e-09
6.52536e-05
2.95669e-09
6.52565e-05
5.26324e-10
6.5261e-05
-2.84768e-10
6.52671e-05
-1.19056e-10
6.5275e-05
5.45934e-10
6.52846e-05
1.35565e-09
6.52961e-05
2.05118e-09
6.53096e-05
2.45225e-09
6.53253e-05
2.4468e-09
6.53433e-05
1.98362e-09
6.53638e-05
1.06529e-09
6.5387e-05
-2.59988e-10
6.54129e-05
-1.90811e-09
6.54415e-05
-3.76989e-09
6.54728e-05
-5.72258e-09
6.55066e-05
-7.64144e-09
6.55429e-05
-9.41028e-09
6.55814e-05
-1.09303e-08
6.56217e-05
-1.21262e-08
6.56636e-05
-1.29503e-08
6.57066e-05
-1.33831e-08
6.57504e-05
-1.34323e-08
6.57944e-05
-1.3129e-08
6.58383e-05
-1.25235e-08
6.58815e-05
-1.16789e-08
6.59235e-05
-1.06652e-08
6.59639e-05
-9.55364e-09
6.60021e-05
-8.41134e-09
6.60376e-05
-7.29698e-09
6.60699e-05
-6.2577e-09
6.60984e-05
-5.32723e-09
6.61227e-05
-4.52521e-09
6.61423e-05
-3.8575e-09
6.61568e-05
-3.3175e-09
6.61656e-05
-2.88805e-09
6.61684e-05
-2.5438e-09
6.61649e-05
-2.25394e-09
6.61546e-05
-1.98485e-09
6.61374e-05
-1.7027e-09
6.61131e-05
-1.37568e-09
6.60816e-05
-9.75936e-10
6.60429e-05
-4.809e-10
6.59969e-05
1.25691e-10
6.5944e-05
8.5331e-10
6.58842e-05
1.70453e-09
6.58181e-05
2.6753e-09
6.57459e-05
3.75547e-09
6.56683e-05
4.92958e-09
6.55858e-05
6.17776e-09
6.54992e-05
7.47668e-09
6.54092e-05
8.80059e-09
6.53168e-05
1.01222e-08
6.52228e-05
1.14138e-08
6.51282e-05
1.26478e-08
6.50341e-05
1.37977e-08
6.49413e-05
1.48392e-08
6.48511e-05
1.575e-08
6.47643e-05
1.65112e-08
6.46819e-05
1.71074e-08
6.46049e-05
1.75272e-08
6.4534e-05
1.77635e-08
6.44699e-05
1.78137e-08
6.44131e-05
1.768e-08
6.43641e-05
1.73696e-08
6.4323e-05
1.68942e-08
6.42898e-05
1.62702e-08
6.42643e-05
1.55178e-08
6.42459e-05
1.4659e-08
6.42341e-05
1.3715e-08
6.42275e-05
1.26939e-08
6.4229e-05
1.16057e-08
6.42238e-05
1.00587e-08
6.42223e-05
7.0927e-09
5.13887e-09
5.11917e-05
1.28953e-06
5.29197e-05
3.06011e-06
5.50309e-05
4.22287e-06
5.73216e-05
4.82804e-06
5.95557e-05
4.96564e-06
6.15866e-05
4.76506e-06
6.33444e-05
4.35074e-06
6.48113e-05
3.82401e-06
6.60006e-05
3.25953e-06
6.69422e-05
2.70787e-06
6.76726e-05
2.20003e-06
6.82293e-05
1.75224e-06
6.86468e-05
1.37036e-06
6.89556e-05
1.0534e-06
6.91806e-05
7.96333e-07
6.93422e-05
5.92062e-07
6.94562e-05
4.32771e-07
6.95352e-05
3.10757e-07
6.95884e-05
2.18917e-07
6.96232e-05
1.50987e-07
6.9645e-05
1.01638e-07
6.96581e-05
6.64629e-08
6.96657e-05
4.19104e-08
6.96699e-05
2.51882e-08
6.96726e-05
1.41464e-08
6.96749e-05
7.16112e-09
6.96777e-05
3.023e-09
6.96815e-05
8.39601e-10
6.96866e-05
-4.66787e-11
6.96934e-05
-1.2278e-10
6.97019e-05
2.47754e-10
6.97123e-05
7.92253e-10
6.97248e-05
1.30795e-09
6.97395e-05
1.64937e-09
6.97565e-05
1.72104e-09
6.97761e-05
1.47266e-09
6.97983e-05
8.94484e-10
6.98234e-05
1.19612e-11
6.98513e-05
-1.12087e-09
6.98821e-05
-2.42906e-09
6.99157e-05
-3.82519e-09
6.99521e-05
-5.21808e-09
6.99911e-05
-6.52088e-09
7.00324e-05
-7.65795e-09
7.00758e-05
-8.57e-09
7.01209e-05
-9.2173e-09
7.01672e-05
-9.58105e-09
7.02145e-05
-9.66276e-09
7.02622e-05
-9.48203e-09
7.03097e-05
-9.07317e-09
7.03566e-05
-8.48102e-09
7.04023e-05
-7.75648e-09
7.04463e-05
-6.95214e-09
7.04879e-05
-6.1183e-09
7.05266e-05
-5.29961e-09
7.05619e-05
-4.53257e-09
7.05931e-05
-3.84404e-09
7.06197e-05
-3.25046e-09
7.06412e-05
-2.75807e-09
7.0657e-05
-2.36361e-09
7.06667e-05
-2.05565e-09
7.06698e-05
-1.81632e-09
7.06659e-05
-1.6233e-09
7.06548e-05
-1.45183e-09
7.0636e-05
-1.2767e-09
7.06095e-05
-1.07393e-09
7.05751e-05
-8.22251e-10
7.05329e-05
-5.04125e-10
7.04828e-05
-1.06536e-10
7.0425e-05
3.78592e-10
7.03599e-05
9.5427e-10
7.02878e-05
1.61859e-09
7.02092e-05
2.36509e-09
7.01247e-05
3.1833e-09
7.00349e-05
4.0594e-09
6.99407e-05
4.97689e-09
6.98429e-05
5.91739e-09
6.97425e-05
6.86127e-09
6.96404e-05
7.78838e-09
6.95377e-05
8.67871e-09
6.94355e-05
9.51296e-09
6.9335e-05
1.02732e-08
6.92371e-05
1.09431e-08
6.91432e-05
1.15088e-08
6.90541e-05
1.19588e-08
6.89708e-05
1.22847e-08
6.88943e-05
1.2481e-08
6.88253e-05
1.25455e-08
6.87643e-05
1.24795e-08
6.87118e-05
1.2288e-08
6.8668e-05
1.19793e-08
6.86328e-05
1.15656e-08
6.86059e-05
1.10619e-08
6.85869e-05
1.0485e-08
6.85751e-05
9.85084e-09
6.85688e-05
9.16348e-09
6.85709e-05
8.42802e-09
6.85668e-05
7.39119e-09
6.85661e-05
5.39626e-09
4.02915e-09
5.1034e-05
6.19413e-07
5.26194e-05
1.49321e-06
5.46859e-05
2.09147e-06
5.70637e-05
2.42522e-06
5.95114e-05
2.52663e-06
6.18466e-05
2.45235e-06
6.39566e-05
2.2615e-06
6.57867e-05
2.00489e-06
6.73235e-05
1.72162e-06
6.85801e-05
1.43928e-06
6.95848e-05
1.17559e-06
7.03729e-05
9.40517e-07
7.09805e-05
7.38322e-07
7.14419e-05
5.69379e-07
7.17872e-05
4.31644e-07
7.20419e-05
3.21749e-07
7.22268e-05
2.35772e-07
7.23587e-05
1.69736e-07
7.2451e-05
1.1991e-07
7.25141e-05
8.29685e-08
7.2556e-05
5.60604e-08
7.25831e-05
3.68188e-08
7.26001e-05
2.33314e-08
7.26105e-05
1.40919e-08
7.26172e-05
7.94066e-09
7.2622e-05
4.00197e-09
7.26263e-05
1.62449e-09
7.2631e-05
3.28144e-10
7.26368e-05
-2.40497e-10
7.2644e-05
-3.43339e-10
7.26531e-05
-1.76564e-10
7.26641e-05
1.1158e-10
7.26773e-05
4.09332e-10
7.26928e-05
6.34711e-10
7.27108e-05
7.31859e-10
7.27314e-05
6.68755e-10
7.27549e-05
4.35048e-10
7.27812e-05
3.94603e-11
7.28105e-05
-4.93432e-10
7.28428e-05
-1.12706e-09
7.2878e-05
-1.8173e-09
7.29161e-05
-2.51703e-09
7.29569e-05
-3.18056e-09
7.30001e-05
-3.76735e-09
7.30455e-05
-4.24488e-09
7.30927e-05
-4.59064e-09
7.31414e-05
-4.79299e-09
7.3191e-05
-4.851e-09
7.32411e-05
-4.77344e-09
7.32911e-05
-4.57705e-09
7.33406e-05
-4.28443e-09
7.33888e-05
-3.92172e-09
7.34352e-05
-3.51627e-09
7.34792e-05
-3.09448e-09
7.35202e-05
-2.68e-09
7.35576e-05
-2.29235e-09
7.35907e-05
-1.94611e-09
7.36189e-05
-1.6505e-09
7.36417e-05
-1.40932e-09
7.36586e-05
-1.22128e-09
7.36689e-05
-1.08065e-09
7.36722e-05
-9.78146e-10
7.36682e-05
-9.02006e-10
7.36564e-05
-8.39111e-10
7.36366e-05
-7.76047e-10
7.36086e-05
-7.00007e-10
7.35723e-05
-5.99535e-10
7.35275e-05
-4.6508e-10
7.34746e-05
-2.89406e-10
7.34135e-05
-6.78401e-11
7.33447e-05
2.01642e-10
7.32685e-05
5.18464e-10
7.31855e-05
8.7964e-10
7.30962e-05
1.28005e-09
7.30015e-05
1.71279e-09
7.2902e-05
2.16953e-09
7.27988e-05
2.64086e-09
7.26929e-05
3.11671e-09
7.25852e-05
3.58666e-09
7.24769e-05
4.04032e-09
7.23693e-05
4.46768e-09
7.22633e-05
4.85939e-09
7.21604e-05
5.20708e-09
7.20615e-05
5.50352e-09
7.19678e-05
5.74283e-09
7.18803e-05
5.92056e-09
7.18e-05
6.03385e-09
7.17276e-05
6.08152e-09
7.16638e-05
6.06411e-09
7.1609e-05
5.98406e-09
7.15633e-05
5.84565e-09
7.15268e-05
5.65508e-09
7.14991e-05
5.42017e-09
7.14798e-05
5.14973e-09
7.1468e-05
4.85191e-09
7.1462e-05
4.52797e-09
7.14646e-05
4.17937e-09
7.14613e-05
3.68147e-09
7.14611e-05
2.70095e-09
2.01494e-09
5.09542e-05
1.62984e-11
5.24622e-05
4.20966e-11
5.44934e-05
6.52415e-11
5.68977e-05
8.60043e-11
5.94358e-05
1.04606e-10
6.19112e-05
1.20938e-10
6.41913e-05
1.34161e-10
6.62026e-05
1.44357e-10
6.7917e-05
1.50468e-10
6.93378e-05
1.51846e-10
7.04879e-05
1.47688e-10
7.14002e-05
1.37333e-10
7.2111e-05
1.20145e-10
7.26561e-05
9.49986e-11
7.30678e-05
6.13275e-11
7.33742e-05
1.90489e-11
7.35987e-05
-3.1971e-11
7.37606e-05
-9.13208e-11
7.38751e-05
-1.57997e-10
7.39543e-05
-2.3053e-10
7.40078e-05
-3.06875e-10
7.40429e-05
-3.84649e-10
7.40655e-05
-4.61167e-10
7.40797e-05
-5.33323e-10
7.40887e-05
-5.97846e-10
7.4095e-05
-6.51641e-10
7.41003e-05
-6.91915e-10
7.41055e-05
-7.16317e-10
7.41117e-05
-7.23136e-10
7.41192e-05
-7.11373e-10
7.41285e-05
-6.80739e-10
7.41398e-05
-6.31773e-10
7.41533e-05
-5.65945e-10
7.41693e-05
-4.85534e-10
7.41878e-05
-3.93364e-10
7.42089e-05
-2.92619e-10
7.4233e-05
-1.86774e-10
7.426e-05
-7.9481e-11
7.429e-05
2.56637e-11
7.4323e-05
1.25368e-10
7.4359e-05
2.16793e-10
7.43979e-05
2.97614e-10
7.44396e-05
3.66071e-10
7.44838e-05
4.21014e-10
7.45303e-05
4.61909e-10
7.45786e-05
4.8879e-10
7.46284e-05
5.02176e-10
7.46792e-05
5.02982e-10
7.47305e-05
4.92429e-10
7.47818e-05
4.71926e-10
7.48325e-05
4.42962e-10
7.4882e-05
4.07023e-10
7.49297e-05
3.65554e-10
7.49749e-05
3.19929e-10
7.50171e-05
2.71394e-10
7.50555e-05
2.20987e-10
7.50896e-05
1.69476e-10
7.51187e-05
1.17377e-10
7.51422e-05
6.50297e-11
7.51596e-05
1.26977e-11
7.51703e-05
-3.93763e-11
7.51738e-05
-9.09799e-11
7.51697e-05
-1.41982e-10
7.51576e-05
-1.92372e-10
7.51373e-05
-2.42258e-10
7.51085e-05
-2.91806e-10
7.50712e-05
-3.41171e-10
7.50253e-05
-3.90442e-10
7.49709e-05
-4.39619e-10
7.49082e-05
-4.88628e-10
7.48375e-05
-5.37333e-10
7.47592e-05
-5.85542e-10
7.46739e-05
-6.32997e-10
7.45823e-05
-6.79373e-10
7.4485e-05
-7.24274e-10
7.43829e-05
-7.67265e-10
7.4277e-05
-8.07902e-10
7.41683e-05
-8.45763e-10
7.40578e-05
-8.80448e-10
7.39468e-05
-9.11565e-10
7.38363e-05
-9.38706e-10
7.37277e-05
-9.61433e-10
7.36221e-05
-9.79282e-10
7.35207e-05
-9.91787e-10
7.34247e-05
-9.98521e-10
7.33351e-05
-9.99133e-10
7.32529e-05
-9.93389e-10
7.31789e-05
-9.81197e-10
7.31136e-05
-9.62603e-10
7.30576e-05
-9.37773e-10
7.30111e-05
-9.06967e-10
7.29739e-05
-8.70528e-10
7.29458e-05
-8.28882e-10
7.29263e-05
-7.82552e-10
7.29146e-05
-7.3217e-10
7.29088e-05
-6.78547e-10
7.29116e-05
-6.22825e-10
7.29088e-05
-5.66945e-10
7.29088e-05
-5.14246e-10
-4.76353e-10
5.09542e-05
-6.1938e-07
5.24622e-05
-1.49313e-06
5.44934e-05
-2.09134e-06
5.68977e-05
-2.42505e-06
5.94358e-05
-2.52643e-06
6.19112e-05
-2.45211e-06
6.41913e-05
-2.26123e-06
6.62026e-05
-2.00461e-06
6.7917e-05
-1.72133e-06
6.93379e-05
-1.43898e-06
7.0488e-05
-1.1753e-06
7.14002e-05
-9.40247e-07
7.21111e-05
-7.38086e-07
7.26561e-05
-5.69193e-07
7.30678e-05
-4.31524e-07
7.33742e-05
-3.21712e-07
7.35988e-05
-2.35836e-07
7.37606e-05
-1.69917e-07
7.38751e-05
-1.20221e-07
7.39543e-05
-8.34218e-08
7.40078e-05
-5.66635e-08
7.4043e-05
-3.75746e-08
7.40655e-05
-2.42372e-08
7.40796e-05
-1.51389e-08
7.40887e-05
-9.11374e-09
7.4095e-05
-5.27991e-09
7.41001e-05
-2.98071e-09
7.41054e-05
-1.73148e-09
7.41115e-05
-1.17541e-09
7.4119e-05
-1.04858e-09
7.41282e-05
-1.15428e-09
7.41395e-05
-1.34541e-09
7.4153e-05
-1.51315e-09
7.41689e-05
-1.58e-09
7.41873e-05
-1.49565e-09
7.42085e-05
-1.2344e-09
7.42325e-05
-7.92767e-10
7.42595e-05
-1.867e-10
7.42894e-05
5.52189e-10
7.43224e-05
1.38093e-09
7.43585e-05
2.24986e-09
7.43974e-05
3.10736e-09
7.44391e-05
3.90429e-09
7.44833e-05
4.59782e-09
7.45297e-05
5.15446e-09
7.4578e-05
5.55179e-09
7.46278e-05
5.77925e-09
7.46786e-05
5.83776e-09
7.47299e-05
5.73849e-09
7.47812e-05
5.50094e-09
7.48319e-05
5.15063e-09
7.48814e-05
4.71664e-09
7.49291e-05
4.22918e-09
7.49744e-05
3.71735e-09
7.50166e-05
3.2072e-09
7.5055e-05
2.7203e-09
7.50891e-05
2.27271e-09
7.51182e-05
1.87467e-09
7.51418e-05
1.53067e-09
7.51591e-05
1.23995e-09
7.51699e-05
9.97219e-10
7.51734e-05
7.93565e-10
7.51693e-05
6.17433e-10
7.51573e-05
4.5569e-10
7.5137e-05
2.94711e-10
7.51083e-05
1.21388e-10
7.5071e-05
-7.60073e-11
7.50252e-05
-3.07165e-10
7.49708e-05
-5.79313e-10
7.49082e-05
-8.96984e-10
7.48375e-05
-1.26195e-09
7.47594e-05
-1.67326e-09
7.46742e-05
-2.12744e-09
7.45826e-05
-2.61872e-09
7.44854e-05
-3.13944e-09
7.43834e-05
-3.68039e-09
7.42775e-05
-4.23132e-09
7.41689e-05
-4.78131e-09
7.40585e-05
-5.31913e-09
7.39475e-05
-5.83362e-09
7.38371e-05
-6.31393e-09
7.37286e-05
-6.7499e-09
7.36231e-05
-7.13222e-09
7.35217e-05
-7.45277e-09
7.34258e-05
-7.70482e-09
7.33363e-05
-7.88328e-09
7.32541e-05
-7.98483e-09
7.31801e-05
-8.00811e-09
7.31149e-05
-7.95377e-09
7.30589e-05
-7.82454e-09
7.30124e-05
-7.62525e-09
7.29752e-05
-7.36278e-09
7.29471e-05
-7.04582e-09
7.29276e-05
-6.68423e-09
7.29158e-05
-6.28745e-09
7.291e-05
-5.85839e-09
7.29128e-05
-5.40076e-09
7.29099e-05
-4.79375e-09
7.29099e-05
-3.71041e-09
-2.95054e-09
5.1034e-05
-1.2895e-06
5.26194e-05
-3.06003e-06
5.46859e-05
-4.22275e-06
5.70637e-05
-4.82788e-06
5.95114e-05
-4.96544e-06
6.18466e-05
-4.76483e-06
6.39567e-05
-4.35049e-06
6.57868e-05
-3.82374e-06
6.73235e-05
-3.25925e-06
6.85802e-05
-2.70759e-06
6.95849e-05
-2.19975e-06
7.0373e-05
-1.75199e-06
7.09807e-05
-1.37014e-06
7.14421e-05
-1.05323e-06
7.17874e-05
-7.96221e-07
7.2042e-05
-5.92028e-07
7.22269e-05
-4.32833e-07
7.23589e-05
-3.10929e-07
7.24512e-05
-2.19213e-07
7.25142e-05
-1.51418e-07
7.25561e-05
-1.0221e-07
7.25831e-05
-6.71786e-08
7.26e-05
-4.27671e-08
7.26104e-05
-2.61771e-08
7.2617e-05
-1.52529e-08
7.26218e-05
-8.36477e-09
7.26259e-05
-4.2985e-09
7.26306e-05
-2.15729e-09
7.26362e-05
-1.28036e-09
7.26434e-05
-1.17891e-09
7.26523e-05
-1.48908e-09
7.26632e-05
-1.93946e-09
7.26763e-05
-2.33013e-09
7.26917e-05
-2.51988e-09
7.27096e-05
-2.41858e-09
7.27301e-05
-1.98204e-09
7.27535e-05
-1.20718e-09
7.27797e-05
-1.26283e-10
7.2809e-05
1.20002e-09
7.28412e-05
2.69081e-09
7.28764e-05
4.25358e-09
7.29144e-05
5.79296e-09
7.29552e-05
7.21889e-09
7.29984e-05
8.45367e-09
7.30438e-05
9.43711e-09
7.30911e-05
1.01298e-08
7.31397e-05
1.0514e-08
7.31893e-05
1.05931e-08
7.32394e-05
1.0389e-08
7.32895e-05
9.93868e-09
7.33389e-05
9.28969e-09
7.33872e-05
8.49577e-09
7.34336e-05
7.61227e-09
7.34777e-05
6.692e-09
7.35187e-05
5.78187e-09
7.35561e-05
4.92021e-09
7.35892e-05
4.13527e-09
7.36175e-05
3.4445e-09
7.36404e-05
2.85482e-09
7.36573e-05
2.36345e-09
7.36677e-05
1.95933e-09
7.36711e-05
1.62482e-09
7.36672e-05
1.33766e-09
7.36555e-05
1.07298e-09
7.36359e-05
8.05365e-10
7.3608e-05
5.10634e-10
7.35718e-05
1.67335e-10
7.35272e-05
-2.42119e-10
7.34744e-05
-7.30705e-10
7.34135e-05
-1.30637e-09
7.33449e-05
-1.97193e-09
7.32689e-05
-2.72514e-09
7.31861e-05
-3.5591e-09
7.3097e-05
-4.46273e-09
7.30025e-05
-5.42149e-09
7.29033e-05
-6.41809e-09
7.28003e-05
-7.43331e-09
7.26946e-05
-8.44671e-09
7.25872e-05
-9.43734e-09
7.24791e-05
-1.03844e-08
7.23717e-05
-1.12678e-08
7.2266e-05
-1.20688e-08
7.21632e-05
-1.27703e-08
7.20645e-05
-1.33575e-08
7.19709e-05
-1.38183e-08
7.18836e-05
-1.41435e-08
7.18034e-05
-1.43273e-08
7.17312e-05
-1.43675e-08
7.16674e-05
-1.42653e-08
7.16127e-05
-1.40261e-08
7.1567e-05
-1.36588e-08
7.15305e-05
-1.3176e-08
7.15028e-05
-1.25939e-08
7.14834e-05
-1.19303e-08
7.14716e-05
-1.12024e-08
7.14655e-05
-1.04161e-08
7.14681e-05
-9.57869e-09
7.14647e-05
-8.44043e-09
7.14644e-05
-6.3502e-09
-4.91485e-09
5.11917e-05
-2.06006e-06
5.29197e-05
-4.76163e-06
5.50309e-05
-6.40701e-06
5.73216e-05
-7.1523e-06
5.95558e-05
-7.1989e-06
6.15867e-05
-6.77763e-06
6.33445e-05
-6.08631e-06
6.48114e-05
-5.27317e-06
6.60008e-05
-4.43981e-06
6.69424e-05
-3.65009e-06
6.76728e-05
-2.93961e-06
6.82295e-05
-2.32416e-06
6.86471e-05
-1.80647e-06
6.89558e-05
-1.38138e-06
6.91808e-05
-1.03949e-06
6.93424e-05
-7.69584e-07