/*--------------------------------*- C++ -*----------------------------------*\
  =========                 |
  \\      /  F ield         | OpenFOAM: The Open Source CFD Toolbox
   \\    /   O peration     | Website:  https://openfoam.org
    \\  /    A nd           | Version:  dev
     \\/     M anipulation  |
\*---------------------------------------------------------------------------*/
FoamFile
{
    format      ascii;
    class       volVectorField;
    location    "100";
    object      U;
}
// * * * * * * * * * * * * * * * * * * * * * * * * * * * * * * * * * * * * * //

dimensions      [0 1 -1 0 0 0 0];

internalField   nonuniform List<vector> 
2000
(
(0.630392 0.0570042 0)
(0.441709 0.0876791 0)
(0.386719 0.0758143 0)
(0.329361 0.0595663 0)
(0.281456 0.0448477 0)
(0.245126 0.0328655 0)
(0.218663 0.0236682 0)
(0.199721 0.01688 0)
(0.186235 0.0119962 0)
(0.176623 0.00853175 0)
(0.169742 0.0060847 0)
(0.164796 0.00435003 0)
(0.161233 0.00310943 0)
(0.15867 0.00221254 0)
(0.156837 0.001558 0)
(0.155541 0.00107782 0)
(0.154638 0.000725826 0)
(0.154026 0.000469842 0)
(0.153624 0.000286598 0)
(0.153373 0.000158649 0)
(0.153229 7.2531e-05 0)
(0.153158 1.76593e-05 0)
(0.153136 -1.43287e-05 0)
(0.153144 -3.00136e-05 0)
(0.153168 -3.45465e-05 0)
(0.153201 -3.19154e-05 0)
(0.153237 -2.51533e-05 0)
(0.153271 -1.65305e-05 0)
(0.153302 -7.7142e-06 0)
(0.153331 1.18168e-07 0)
(0.153356 6.18884e-06 0)
(0.15338 1.00408e-05 0)
(0.153404 1.1479e-05 0)
(0.153429 1.05283e-05 0)
(0.153456 7.39214e-06 0)
(0.153488 2.40873e-06 0)
(0.153525 -3.99013e-06 0)
(0.153567 -1.13158e-05 0)
(0.153616 -1.9061e-05 0)
(0.153671 -2.67376e-05 0)
(0.153732 -3.39073e-05 0)
(0.153799 -4.02048e-05 0)
(0.153872 -4.53532e-05 0)
(0.153949 -4.91744e-05 0)
(0.15403 -5.15905e-05 0)
(0.154113 -5.26158e-05 0)
(0.154199 -5.23437e-05 0)
(0.154287 -5.09313e-05 0)
(0.154374 -4.85818e-05 0)
(0.154461 -4.55254e-05 0)
(0.154546 -4.19983e-05 0)
(0.154629 -3.82247e-05 0)
(0.154709 -3.44029e-05 0)
(0.154785 -3.06967e-05 0)
(0.154856 -2.72295e-05 0)
(0.154921 -2.40802e-05 0)
(0.154979 -2.1283e-05 0)
(0.15503 -1.883e-05 0)
(0.155072 -1.6678e-05 0)
(0.155106 -1.47562e-05 0)
(0.155129 -1.29746e-05 0)
(0.155141 -1.12314e-05 0)
(0.155142 -9.42085e-06 0)
(0.155131 -7.44061e-06 0)
(0.155107 -5.1993e-06 0)
(0.15507 -2.62204e-06 0)
(0.15502 3.45885e-07 0)
(0.154956 3.73733e-06 0)
(0.154879 7.563e-06 0)
(0.154788 1.18118e-05 0)
(0.154684 1.64519e-05 0)
(0.154567 2.14319e-05 0)
(0.154438 2.66832e-05 0)
(0.154298 3.21235e-05 0)
(0.154147 3.76595e-05 0)
(0.153988 4.31911e-05 0)
(0.153821 4.86141e-05 0)
(0.153648 5.38236e-05 0)
(0.15347 5.87164e-05 0)
(0.153289 6.31935e-05 0)
(0.153107 6.71627e-05 0)
(0.152926 7.05409e-05 0)
(0.152747 7.32557e-05 0)
(0.152573 7.52479e-05 0)
(0.152406 7.64726e-05 0)
(0.152246 7.69004e-05 0)
(0.152096 7.65182e-05 0)
(0.151958 7.53277e-05 0)
(0.151832 7.33419e-05 0)
(0.151719 7.0576e-05 0)
(0.151621 6.70269e-05 0)
(0.151538 6.26364e-05 0)
(0.151469 5.72214e-05 0)
(0.151415 5.03463e-05 0)
(0.151376 4.10825e-05 0)
(0.151352 2.75583e-05 0)
(0.151358 6.59149e-06 0)
(0.151497 -2.335e-05 0)
(0.151169 -2.18875e-05 0)
(0.151614 -1.28819e-05 0)
(0.922505 0.127916 0)
(0.837185 0.210185 0)
(0.786019 0.19367 0)
(0.721813 0.158203 0)
(0.657131 0.122353 0)
(0.601057 0.0916212 0)
(0.556005 0.0672654 0)
(0.521198 0.048847 0)
(0.494824 0.0353119 0)
(0.475013 0.0255173 0)
(0.460183 0.0184647 0)
(0.449103 0.013373 0)
(0.440848 0.00966973 0)
(0.434725 0.00695267 0)
(0.430216 0.00494515 0)
(0.426931 0.00345758 0)
(0.424571 0.00235823 0)
(0.422905 0.0015531 0)
(0.421756 0.000972752 0)
(0.420988 0.000564226 0)
(0.420496 0.000286158 0)
(0.420201 0.000105831 0)
(0.420042 -2.68658e-06 0)
(0.419975 -5.98237e-05 0)
(0.419966 -8.15308e-05 0)
(0.419993 -8.01139e-05 0)
(0.42004 -6.49265e-05 0)
(0.420097 -4.29717e-05 0)
(0.420157 -1.9396e-05 0)
(0.420217 2.13704e-06 0)
(0.420278 1.91569e-05 0)
(0.420341 3.01564e-05 0)
(0.420408 3.44214e-05 0)
(0.420482 3.18991e-05 0)
(0.420565 2.30756e-05 0)
(0.420661 8.8555e-06 0)
(0.420771 -9.55474e-06 0)
(0.420897 -3.07608e-05 0)
(0.421041 -5.32965e-05 0)
(0.421202 -7.57338e-05 0)
(0.421381 -9.6775e-05 0)
(0.421575 -0.000115326 0)
(0.421784 -0.000130552 0)
(0.422006 -0.000141904 0)
(0.422239 -0.00014913 0)
(0.422481 -0.000152252 0)
(0.422728 -0.000151531 0)
(0.422979 -0.000147427 0)
(0.423231 -0.000140537 0)
(0.423482 -0.000131543 0)
(0.423728 -0.000121149 0)
(0.423967 -0.000110024 0)
(0.424198 -9.87701e-05 0)
(0.424416 -8.7884e-05 0)
(0.424621 -7.7743e-05 0)
(0.424809 -6.85904e-05 0)
(0.424977 -6.05342e-05 0)
(0.425124 -5.35571e-05 0)
(0.425247 -4.75341e-05 0)
(0.425342 -4.22557e-05 0)
(0.425409 -3.74516e-05 0)
(0.425444 -3.28144e-05 0)
(0.425446 -2.80236e-05 0)
(0.425412 -2.27689e-05 0)
(0.425341 -1.67714e-05 0)
(0.425232 -9.79981e-06 0)
(0.425083 -1.68138e-06 0)
(0.424895 7.6926e-06 0)
(0.424666 1.83646e-05 0)
(0.424398 3.03116e-05 0)
(0.424092 4.3447e-05 0)
(0.423748 5.76262e-05 0)
(0.423369 7.26533e-05 0)
(0.422957 8.82906e-05 0)
(0.422516 0.000104268 0)
(0.422048 0.000120296 0)
(0.421558 0.000136069 0)
(0.42105 0.000151281 0)
(0.42053 0.000165631 0)
(0.420001 0.000178828 0)
(0.419469 0.0001906 0)
(0.41894 0.000200704 0)
(0.41842 0.000208924 0)
(0.417914 0.000215084 0)
(0.417427 0.000219049 0)
(0.416965 0.000220729 0)
(0.416532 0.00022008 0)
(0.416132 0.000217105 0)
(0.415769 0.000211844 0)
(0.415446 0.000204353 0)
(0.415165 0.000194662 0)
(0.414927 0.000182693 0)
(0.414731 0.000168115 0)
(0.414577 0.000150099 0)
(0.414462 0.000126891 0)
(0.414381 9.50293e-05 0)
(0.414348 4.79932e-05 0)
(0.41452 -2.53713e-05 0)
(0.413994 -7.15389e-05 0)
(0.414663 -5.96033e-05 0)
(0.995036 0.132578 0)
(0.992762 0.238236 0)
(0.981379 0.244551 0)
(0.948052 0.215181 0)
(0.902502 0.176216 0)
(0.855713 0.138539 0)
(0.813599 0.106232 0)
(0.778222 0.0802309 0)
(0.749607 0.0600647 0)
(0.726949 0.044747 0)
(0.709239 0.0332277 0)
(0.695523 0.0245891 0)
(0.684989 0.018103 0)
(0.676969 0.0132219 0)
(0.670924 0.00954503 0)
(0.666419 0.00678082 0)
(0.663108 0.00471525 0)
(0.660713 0.00318799 0)
(0.659012 0.00207615 0)
(0.657832 0.00128358 0)
(0.657037 0.000734175 0)
(0.656524 0.000367422 0)
(0.656211 0.000135386 0)
(0.65604 4.49533e-07 0)
(0.655964 -6.65726e-05 0)
(0.655952 -8.80504e-05 0)
(0.65598 -8.09142e-05 0)
(0.656033 -5.78116e-05 0)
(0.656101 -2.80545e-05 0)
(0.656179 1.64459e-06 0)
(0.656264 2.66211e-05 0)
(0.656358 4.38524e-05 0)
(0.656462 5.16611e-05 0)
(0.65658 4.94858e-05 0)
(0.656715 3.76876e-05 0)
(0.656871 1.73681e-05 0)
(0.65705 -9.81234e-06 0)
(0.657254 -4.182e-05 0)
(0.657486 -7.64337e-05 0)
(0.657745 -0.000111421 0)
(0.658031 -0.000144698 0)
(0.658343 -0.000174461 0)
(0.658678 -0.000199288 0)
(0.659034 -0.0002182 0)
(0.659408 -0.000230678 0)
(0.659795 -0.00023665 0)
(0.660193 -0.000236448 0)
(0.660596 -0.000230735 0)
(0.661001 -0.000220423 0)
(0.661405 -0.000206573 0)
(0.661801 -0.000190305 0)
(0.662187 -0.000172707 0)
(0.662559 -0.000154774 0)
(0.662912 -0.000137346 0)
(0.663242 -0.000121071 0)
(0.663545 -0.000106385 0)
(0.663817 -9.35033e-05 0)
(0.664054 -8.24372e-05 0)
(0.664251 -7.30177e-05 0)
(0.664405 -6.49304e-05 0)
(0.664511 -5.77526e-05 0)
(0.664567 -5.09936e-05 0)
(0.664568 -4.4135e-05 0)
(0.664511 -3.66692e-05 0)
(0.664394 -2.81329e-05 0)
(0.664215 -1.81335e-05 0)
(0.663972 -6.3675e-06 0)
(0.663664 7.36769e-06 0)
(0.663292 2.31682e-05 0)
(0.662855 4.10226e-05 0)
(0.662356 6.08158e-05 0)
(0.661796 8.23373e-05 0)
(0.66118 0.000105293 0)
(0.660511 0.000129319 0)
(0.659793 0.000154 0)
(0.659034 0.000178883 0)
(0.658239 0.000203492 0)
(0.657416 0.000227346 0)
(0.656572 0.000249968 0)
(0.655716 0.000270898 0)
(0.654856 0.000289707 0)
(0.654002 0.000306003 0)
(0.653162 0.000319444 0)
(0.652345 0.000329746 0)
(0.651562 0.000336689 0)
(0.650818 0.000340125 0)
(0.650123 0.00033998 0)
(0.649484 0.000336256 0)
(0.648905 0.000329021 0)
(0.648391 0.00031839 0)
(0.647945 0.00030448 0)
(0.647569 0.000287335 0)
(0.647262 0.00026679 0)
(0.647021 0.000242288 0)
(0.646841 0.000212667 0)
(0.646714 0.000175878 0)
(0.646637 0.000127729 0)
(0.646784 5.01724e-05 0)
(0.646248 -5.50101e-05 0)
(0.646727 -6.84858e-05 0)
(1.01242 0.11605 0)
(1.04522 0.225325 0)
(1.06478 0.252806 0)
(1.06444 0.239221 0)
(1.04791 0.208148 0)
(1.02325 0.172481 0)
(0.9966 0.13854 0)
(0.971416 0.108981 0)
(0.949231 0.0845005 0)
(0.93047 0.0648312 0)
(0.915012 0.0493154 0)
(0.902516 0.0372098 0)
(0.892571 0.0278295 0)
(0.884768 0.0205986 0)
(0.878731 0.0150546 0)
(0.874125 0.0108332 0)
(0.870662 0.00764849 0)
(0.868097 0.00527469 0)
(0.866229 0.00353215 0)
(0.864894 0.00227706 0)
(0.863963 0.00139412 0)
(0.863333 0.000791304 0)
(0.862924 0.000395776 0)
(0.862675 0.000150604 0)
(0.862541 1.18602e-05 0)
(0.862488 -5.39167e-05 0)
(0.86249 -7.19175e-05 0)
(0.862529 -6.09099e-05 0)
(0.862596 -3.47389e-05 0)
(0.862682 -3.48551e-06 0)
(0.862784 2.56714e-05 0)
(0.862902 4.78373e-05 0)
(0.863039 5.99696e-05 0)
(0.863196 6.05667e-05 0)
(0.863377 4.94174e-05 0)
(0.863586 2.73716e-05 0)
(0.863827 -3.88404e-06 0)
(0.864102 -4.20559e-05 0)
(0.864413 -8.44798e-05 0)
(0.86476 -0.000128358 0)
(0.865143 -0.000170981 0)
(0.86556 -0.000209922 0)
(0.866009 -0.000243184 0)
(0.866486 -0.000269304 0)
(0.866988 -0.0002874 0)
(0.867508 -0.000297181 0)
(0.868043 -0.000298899 0)
(0.868587 -0.000293271 0)
(0.869134 -0.000281375 0)
(0.869679 -0.000264525 0)
(0.870216 -0.000244152 0)
(0.870739 -0.000221693 0)
(0.871243 -0.000198486 0)
(0.871722 -0.000175696 0)
(0.872169 -0.000154249 0)
(0.87258 -0.000134798 0)
(0.872949 -0.000117711 0)
(0.87327 -0.000103083 0)
(0.873537 -9.07628e-05 0)
(0.873744 -8.03918e-05 0)
(0.873887 -7.14551e-05 0)
(0.873961 -6.33325e-05 0)
(0.87396 -5.53527e-05 0)
(0.873881 -4.68442e-05 0)
(0.873719 -3.71799e-05 0)
(0.873473 -2.58143e-05 0)
(0.87314 -1.23101e-05 0)
(0.872719 3.64301e-06 0)
(0.87221 2.22172e-05 0)
(0.871614 4.34436e-05 0)
(0.870934 6.72162e-05 0)
(0.870171 9.33018e-05 0)
(0.869332 0.000121355 0)
(0.868421 0.000150936 0)
(0.867446 0.000181534 0)
(0.866414 0.000212584 0)
(0.865335 0.000243488 0)
(0.864217 0.000273635 0)
(0.863073 0.000302416 0)
(0.861912 0.000329244 0)
(0.860748 0.000353564 0)
(0.859592 0.00037487 0)
(0.858458 0.000392716 0)
(0.857356 0.000406729 0)
(0.856299 0.000416617 0)
(0.855299 0.000422179 0)
(0.854366 0.000423309 0)
(0.85351 0.00042 0)
(0.852736 0.000412338 0)
(0.852053 0.000400486 0)
(0.851462 0.000384652 0)
(0.850967 0.000365031 0)
(0.850565 0.000341711 0)
(0.850254 0.000314569 0)
(0.850025 0.000283225 0)
(0.849868 0.000247123 0)
(0.849766 0.000204954 0)
(0.849901 0.000139279 0)
(0.8494 3.04337e-05 0)
(0.849792 -8.70222e-06 0)
(1.01483 0.0924004 0)
(1.05661 0.191608 0)
(1.09213 0.230888 0)
(1.11533 0.232635 0)
(1.1247 0.213679 0)
(1.12388 0.185614 0)
(1.11705 0.155361 0)
(1.10739 0.126655 0)
(1.09693 0.101235 0)
(1.08681 0.0796631 0)
(1.07764 0.0618654 0)
(1.06966 0.0474674 0)
(1.06292 0.0359886 0)
(1.05738 0.0269458 0)
(1.05292 0.0198997 0)
(1.0494 0.0144701 0)
(1.04667 0.0103364 0)
(1.04458 0.00723168 0)
(1.04302 0.00493575 0)
(1.04186 0.00326794 0)
(1.04102 0.00208148 0)
(1.04043 0.00125838 0)
(1.04003 0.000705115 0)
(1.03977 0.0003486 0)
(1.03962 0.000132617 0)
(1.03954 1.45145e-05 0)
(1.03953 -3.76961e-05 0)
(1.03955 -4.77949e-05 0)
(1.03962 -3.33412e-05 0)
(1.03971 -7.21715e-06 0)
(1.03982 2.12291e-05 0)
(1.03996 4.53846e-05 0)
(1.04013 6.08355e-05 0)
(1.04032 6.49953e-05 0)
(1.04054 5.68219e-05 0)
(1.0408 3.65772e-05 0)
(1.04109 5.59819e-06 0)
(1.04143 -3.3946e-05 0)
(1.04181 -7.93179e-05 0)
(1.04224 -0.000127486 0)
(1.0427 -0.000175391 0)
(1.04321 -0.00022018 0)
(1.04376 -0.000259407 0)
(1.04435 -0.000291176 0)
(1.04496 -0.000314231 0)
(1.0456 -0.000327988 0)
(1.04626 -0.000332506 0)
(1.04693 -0.000328409 0)
(1.04761 -0.000316782 0)
(1.04828 -0.000299033 0)
(1.04894 -0.000276761 0)
(1.04959 -0.000251619 0)
(1.05022 -0.000225192 0)
(1.05081 -0.000198891 0)
(1.05137 -0.000173878 0)
(1.05188 -0.000151013 0)
(1.05234 -0.000130833 0)
(1.05274 -0.000113553 0)
(1.05307 -9.90915e-05 0)
(1.05333 -8.7115e-05 0)
(1.0535 -7.70868e-05 0)
(1.05359 -6.83291e-05 0)
(1.05359 -6.00846e-05 0)
(1.05349 -5.15763e-05 0)
(1.05329 -4.20606e-05 0)
(1.05298 -3.08728e-05 0)
(1.05256 -1.74622e-05 0)
(1.05203 -1.41807e-06 0)
(1.0514 1.75153e-05 0)
(1.05065 3.9432e-05 0)
(1.04981 6.4267e-05 0)
(1.04886 9.18065e-05 0)
(1.04781 0.000121704 0)
(1.04668 0.000153502 0)
(1.04546 0.000186651 0)
(1.04418 0.000220537 0)
(1.04284 0.000254504 0)
(1.04146 0.00028787 0)
(1.04004 0.000319956 0)
(1.0386 0.0003501 0)
(1.03716 0.000377673 0)
(1.03573 0.000402099 0)
(1.03433 0.000422868 0)
(1.03297 0.000439546 0)
(1.03166 0.000451792 0)
(1.03043 0.000459363 0)
(1.02929 0.000462126 0)
(1.02824 0.000460056 0)
(1.02729 0.000453239 0)
(1.02646 0.000441864 0)
(1.02575 0.0004262 0)
(1.02515 0.000406563 0)
(1.02467 0.000383258 0)
(1.02431 0.000356525 0)
(1.02404 0.000326521 0)
(1.02387 0.000293384 0)
(1.02376 0.000257115 0)
(1.0239 0.000202527 0)
(1.02344 0.000102694 0)
(1.02379 5.2278e-05 0)
(1.01317 0.0694137 0)
(1.05316 0.15188 0)
(1.09417 0.19349 0)
(1.13096 0.205142 0)
(1.15901 0.19709 0)
(1.17821 0.178074 0)
(1.1902 0.154251 0)
(1.19693 0.129532 0)
(1.20007 0.106179 0)
(1.20088 0.0853371 0)
(1.20029 0.0674361 0)
(1.19893 0.0524841 0)
(1.19724 0.0402613 0)
(1.19548 0.0304451 0)
(1.19384 0.0226838 0)
(1.19238 0.0166367 0)
(1.19113 0.0119933 0)
(1.1901 0.00848132 0)
(1.18927 0.0058672 0)
(1.18862 0.00395501 0)
(1.18811 0.0025831 0)
(1.18772 0.0016204 0)
(1.18744 0.000962581 0)
(1.18725 0.000528024 0)
(1.18713 0.000253988 0)
(1.18707 9.29803e-05 0)
(1.18705 9.48451e-06 0)
(1.18708 -2.28372e-05 0)
(1.18715 -2.34355e-05 0)
(1.18724 -6.65479e-06 0)
(1.18737 1.69586e-05 0)
(1.18753 3.97548e-05 0)
(1.18772 5.63825e-05 0)
(1.18794 6.33908e-05 0)
(1.1882 5.89523e-05 0)
(1.1885 4.26482e-05 0)
(1.18884 1.52634e-05 0)
(1.18923 -2.14425e-05 0)
(1.18967 -6.49943e-05 0)
(1.19016 -0.000112478 0)
(1.1907 -0.000160818 0)
(1.19129 -0.000207034 0)
(1.19193 -0.000248468 0)
(1.1926 -0.00028297 0)
(1.19331 -0.000309009 0)
(1.19405 -0.000325736 0)
(1.19482 -0.000332977 0)
(1.1956 -0.00033117 0)
(1.19639 -0.000321272 0)
(1.19717 -0.000304628 0)
(1.19795 -0.000282832 0)
(1.19871 -0.000257584 0)
(1.19945 -0.000230555 0)
(1.20015 -0.000203275 0)
(1.2008 -0.000177037 0)
(1.2014 -0.00015284 0)
(1.20194 -0.000131351 0)
(1.20241 -0.000112904 0)
(1.2028 -9.75146e-05 0)
(1.2031 -8.49195e-05 0)
(1.20331 -7.46274e-05 0)
(1.20342 -6.5979e-05 0)
(1.20341 -5.82112e-05 0)
(1.20329 -5.05196e-05 0)
(1.20305 -4.21165e-05 0)
(1.20268 -3.22806e-05 0)
(1.20219 -2.03976e-05 0)
(1.20157 -5.99034e-06 0)
(1.20082 1.1262e-05 0)
(1.19994 3.1515e-05 0)
(1.19894 5.47594e-05 0)
(1.19783 8.08299e-05 0)
(1.1966 0.00010942 0)
(1.19527 0.000140104 0)
(1.19384 0.000172356 0)
(1.19234 0.000205577 0)
(1.19076 0.000239115 0)
(1.18914 0.000272294 0)
(1.18747 0.000304426 0)
(1.18579 0.000334842 0)
(1.1841 0.000362901 0)
(1.18243 0.000388012 0)
(1.1808 0.000409647 0)
(1.17921 0.000427358 0)
(1.17769 0.000440782 0)
(1.17626 0.000449661 0)
(1.17493 0.000453839 0)
(1.17372 0.000453277 0)
(1.17263 0.000448049 0)
(1.17167 0.000438339 0)
(1.17085 0.000424436 0)
(1.17017 0.000406712 0)
(1.16963 0.000385593 0)
(1.16923 0.000361515 0)
(1.16894 0.000334886 0)
(1.16876 0.000305979 0)
(1.16866 0.000275102 0)
(1.16881 0.000229956 0)
(1.1684 0.000144208 0)
(1.16872 9.34605e-05 0)
(1.0108 0.0495311 0)
(1.0458 0.113051 0)
(1.08685 0.150229 0)
(1.13004 0.165697 0)
(1.16977 0.164936 0)
(1.20351 0.153745 0)
(1.23072 0.136852 0)
(1.25187 0.117658 0)
(1.26786 0.0984045 0)
(1.27964 0.0804408 0)
(1.28813 0.0644715 0)
(1.2941 0.0507673 0)
(1.29821 0.0393248 0)
(1.30097 0.0299833 0)
(1.30278 0.0225036 0)
(1.30393 0.0166192 0)
(1.30463 0.0120665 0)
(1.30503 0.00860174 0)
(1.30522 0.00600846 0)
(1.30529 0.00410089 0)
(1.30528 0.00272344 0)
(1.30523 0.00174886 0)
(1.30516 0.0010753 0)
(1.3051 0.000622924 0)
(1.30506 0.000330314 0)
(1.30504 0.00015105 0)
(1.30505 5.04971e-05 0)
(1.30509 3.02575e-06 0)
(1.30517 -1.02797e-05 0)
(1.30527 -3.40862e-06 0)
(1.30541 1.32672e-05 0)
(1.30559 3.20912e-05 0)
(1.3058 4.75295e-05 0)
(1.30605 5.57965e-05 0)
(1.30634 5.46175e-05 0)
(1.30667 4.30569e-05 0)
(1.30706 2.13525e-05 0)
(1.3075 -9.27462e-06 0)
(1.30799 -4.68433e-05 0)
(1.30853 -8.88569e-05 0)
(1.30913 -0.000132558 0)
(1.30978 -0.000175182 0)
(1.31048 -0.000214181 0)
(1.31123 -0.000247418 0)
(1.31202 -0.000273294 0)
(1.31285 -0.000290822 0)
(1.3137 -0.000299644 0)
(1.31457 -0.000299994 0)
(1.31545 -0.000292617 0)
(1.31633 -0.000278661 0)
(1.3172 -0.000259545 0)
(1.31806 -0.00023683 0)
(1.31888 -0.000212085 0)
(1.31967 -0.000186777 0)
(1.32041 -0.000162181 0)
(1.32109 -0.000139308 0)
(1.3217 -0.000118871 0)
(1.32223 -0.000101272 0)
(1.32268 -8.66083e-05 0)
(1.32302 -7.47085e-05 0)
(1.32325 -6.51722e-05 0)
(1.32337 -5.74257e-05 0)
(1.32337 -5.07803e-05 0)
(1.32323 -4.4492e-05 0)
(1.32296 -3.7817e-05 0)
(1.32254 -3.00611e-05 0)
(1.32198 -2.06199e-05 0)
(1.32128 -9.00939e-06 0)
(1.32043 5.11367e-06 0)
(1.31944 2.19413e-05 0)
(1.31832 4.15129e-05 0)
(1.31705 6.37216e-05 0)
(1.31567 8.83272e-05 0)
(1.31417 0.000114973 0)
(1.31256 0.000143208 0)
(1.31087 0.000172504 0)
(1.3091 0.000202283 0)
(1.30727 0.000231936 0)
(1.3054 0.000260842 0)
(1.30351 0.000288389 0)
(1.30162 0.000313992 0)
(1.29974 0.000337104 0)
(1.29791 0.00035724 0)
(1.29613 0.000373978 0)
(1.29444 0.00038698 0)
(1.29284 0.000395996 0)
(1.29136 0.000400872 0)
(1.29 0.000401557 0)
(1.28879 0.000398106 0)
(1.28773 0.000390679 0)
(1.28683 0.000379541 0)
(1.28609 0.000365054 0)
(1.2855 0.000347655 0)
(1.28507 0.000327824 0)
(1.28477 0.000306017 0)
(1.2846 0.000282442 0)
(1.2845 0.000257356 0)
(1.28466 0.000221485 0)
(1.28429 0.000152739 0)
(1.2846 0.000108409 0)
(1.00878 0.0328724 0)
(1.03888 0.0774175 0)
(1.07791 0.106056 0)
(1.12333 0.120401 0)
(1.16953 0.123027 0)
(1.2127 0.117368 0)
(1.25077 0.106609 0)
(1.28301 0.0932789 0)
(1.30945 0.0791982 0)
(1.33058 0.0655731 0)
(1.34711 0.053123 0)
(1.3598 0.0422084 0)
(1.36937 0.032942 0)
(1.3765 0.0252783 0)
(1.38172 0.0190799 0)
(1.3855 0.0141653 0)
(1.38819 0.0103396 0)
(1.39006 0.0074134 0)
(1.39134 0.00521358 0)
(1.39219 0.00358846 0)
(1.39273 0.00240941 0)
(1.39307 0.00157032 0)
(1.39326 0.000985861 0)
(1.39337 0.000588955 0)
(1.39343 0.00032798 0)
(1.39347 0.000163936 0)
(1.39352 6.77707e-05 0)
(1.39359 1.80272e-05 0)
(1.39367 -1.11103e-06 0)
(1.39379 -1.35362e-06 0)
(1.39394 8.57011e-06 0)
(1.39413 2.21349e-05 0)
(1.39436 3.45178e-05 0)
(1.39463 4.22936e-05 0)
(1.39495 4.32546e-05 0)
(1.39531 3.62879e-05 0)
(1.39573 2.12592e-05 0)
(1.3962 -1.1249e-06 0)
(1.39673 -2.94811e-05 0)
(1.39732 -6.19385e-05 0)
(1.39796 -9.63448e-05 0)
(1.39866 -0.000130476 0)
(1.39942 -0.00016223 0)
(1.40022 -0.000189793 0)
(1.40107 -0.000211756 0)
(1.40196 -0.000227192 0)
(1.40288 -0.000235681 0)
(1.40381 -0.000237296 0)
(1.40477 -0.000232544 0)
(1.40572 -0.00022228 0)
(1.40667 -0.00020761 0)
(1.4076 -0.000189777 0)
(1.4085 -0.000170061 0)
(1.40935 -0.000149676 0)
(1.41016 -0.000129698 0)
(1.4109 -0.000111 0)
(1.41157 -9.42181e-05 0)
(1.41215 -7.97366e-05 0)
(1.41264 -6.76917e-05 0)
(1.41301 -5.79916e-05 0)
(1.41327 -5.03496e-05 0)
(1.4134 -4.43264e-05 0)
(1.41339 -3.93774e-05 0)
(1.41324 -3.49021e-05 0)
(1.41295 -3.02908e-05 0)
(1.41249 -2.49663e-05 0)
(1.41189 -1.84176e-05 0)
(1.41112 -1.02266e-05 0)
(1.4102 -8.60403e-08 0)
(1.40912 1.21911e-05 0)
(1.40789 2.66684e-05 0)
(1.40651 4.32904e-05 0)
(1.405 6.18916e-05 0)
(1.40337 8.221e-05 0)
(1.40162 0.000103903 0)
(1.39978 0.000126564 0)
(1.39785 0.00014974 0)
(1.39587 0.000172953 0)
(1.39383 0.00019571 0)
(1.39178 0.000217521 0)
(1.38973 0.000237918 0)
(1.38769 0.000256463 0)
(1.3857 0.00027276 0)
(1.38378 0.000286471 0)
(1.38195 0.000297318 0)
(1.38022 0.000305094 0)
(1.37862 0.000309668 0)
(1.37716 0.000310991 0)
(1.37585 0.000309096 0)
(1.37472 0.000304105 0)
(1.37375 0.000296228 0)
(1.37296 0.000285756 0)
(1.37235 0.000273056 0)
(1.37189 0.000258537 0)
(1.37159 0.000242585 0)
(1.37142 0.000225314 0)
(1.37133 0.000206872 0)
(1.3715 0.000180862 0)
(1.37117 0.000130969 0)
(1.37147 9.71459e-05 0)
(1.00742 0.018709 0)
(1.03394 0.0449868 0)
(1.07084 0.0628588 0)
(1.1166 0.0727203 0)
(1.16595 0.0755985 0)
(1.21451 0.0732345 0)
(1.25936 0.0674203 0)
(1.29891 0.0596814 0)
(1.33256 0.0511831 0)
(1.36038 0.0427417 0)
(1.38282 0.0348781 0)
(1.40057 0.0278814 0)
(1.41435 0.0218725 0)
(1.42488 0.0168579 0)
(1.4328 0.0127735 0)
(1.43869 0.00951715 0)
(1.44299 0.00697121 0)
(1.44608 0.00501688 0)
(1.44827 0.00354309 0)
(1.44977 0.00245103 0)
(1.45079 0.00165613 0)
(1.45145 0.0010882 0)
(1.45187 0.000690556 0)
(1.45213 0.000418573 0)
(1.45229 0.000237877 0)
(1.4524 0.000122509 0)
(1.45248 5.31495e-05 0)
(1.45257 1.55569e-05 0)
(1.45267 -7.56116e-07 0)
(1.4528 -3.55757e-06 0)
(1.45296 1.34004e-06 0)
(1.45316 9.55519e-06 0)
(1.4534 1.78001e-05 0)
(1.45369 2.36812e-05 0)
(1.45402 2.55872e-05 0)
(1.45441 2.26185e-05 0)
(1.45485 1.45202e-05 0)
(1.45535 1.60335e-06 0)
(1.4559 -1.53539e-05 0)
(1.45652 -3.5224e-05 0)
(1.45719 -5.66629e-05 0)
(1.45793 -7.82473e-05 0)
(1.45872 -9.86049e-05 0)
(1.45956 -0.000116525 0)
(1.46045 -0.000131044 0)
(1.46137 -0.0001415 0)
(1.46234 -0.000147561 0)
(1.46332 -0.000149214 0)
(1.46432 -0.000146738 0)
(1.46532 -0.000140647 0)
(1.46632 -0.000131631 0)
(1.4673 -0.000120482 0)
(1.46825 -0.000108025 0)
(1.46916 -9.50555e-05 0)
(1.47001 -8.2286e-05 0)
(1.4708 -7.0303e-05 0)
(1.47151 -5.95434e-05 0)
(1.47212 -5.02819e-05 0)
(1.47263 -4.26312e-05 0)
(1.47303 -3.65527e-05 0)
(1.47331 -3.18762e-05 0)
(1.47345 -2.83264e-05 0)
(1.47344 -2.55546e-05 0)
(1.47329 -2.31711e-05 0)
(1.47297 -2.0777e-05 0)
(1.47249 -1.7991e-05 0)
(1.47185 -1.44725e-05 0)
(1.47104 -9.93835e-06 0)
(1.47006 -4.1754e-06 0)
(1.46892 2.95261e-06 0)
(1.46762 1.15024e-05 0)
(1.46617 2.14532e-05 0)
(1.46457 3.2712e-05 0)
(1.46285 4.51221e-05 0)
(1.461 5.84731e-05 0)
(1.45906 7.25121e-05 0)
(1.45702 8.6955e-05 0)
(1.45493 0.000101498 0)
(1.45279 0.000115826 0)
(1.45062 0.000129627 0)
(1.44846 0.0001426 0)
(1.44631 0.000154463 0)
(1.44422 0.000164963 0)
(1.44219 0.00017388 0)
(1.44026 0.000181036 0)
(1.43845 0.000186296 0)
(1.43676 0.000189572 0)
(1.43523 0.000190829 0)
(1.43387 0.000190085 0)
(1.43268 0.000187414 0)
(1.43168 0.000182946 0)
(1.43086 0.000176869 0)
(1.43022 0.000169419 0)
(1.42975 0.000160863 0)
(1.42944 0.000151449 0)
(1.42928 0.000141225 0)
(1.4292 0.000130249 0)
(1.42938 0.000114785 0)
(1.42907 8.48811e-05 0)
(1.42937 6.40201e-05 0)
(1.00674 0.00606751 0)
(1.03143 0.0147417 0)
(1.06706 0.0207999 0)
(1.11267 0.0242885 0)
(1.16324 0.0254668 0)
(1.2142 0.0248594 0)
(1.26225 0.0230396 0)
(1.3054 0.0205142 0)
(1.3427 0.0176818 0)
(1.37398 0.0148294 0)
(1.39954 0.0121455 0)
(1.41998 0.00973924 0)
(1.43603 0.00766036 0)
(1.44841 0.0059173 0)
(1.45783 0.0044923 0)
(1.46488 0.00335281 0)
(1.47009 0.00245967 0)
(1.47386 0.00177257 0)
(1.47656 0.00125333 0)
(1.47844 0.000867711 0)
(1.47973 0.000586289 0)
(1.48058 0.000384558 0)
(1.48114 0.0002427 0)
(1.48148 0.000145103 0)
(1.4817 7.9749e-05 0)
(1.48185 3.75704e-05 0)
(1.48195 1.18302e-05 0)
(1.48206 -2.43112e-06 0)
(1.48217 -8.86378e-06 0)
(1.4823 -1.0176e-05 0)
(1.48247 -8.4026e-06 0)
(1.48267 -5.09199e-06 0)
(1.48292 -1.42682e-06 0)
(1.48321 1.70726e-06 0)
(1.48356 3.68715e-06 0)
(1.48395 4.13174e-06 0)
(1.4844 2.88176e-06 0)
(1.48491 -2.49388e-08 0)
(1.48548 -4.38338e-06 0)
(1.48611 -9.85853e-06 0)
(1.48681 -1.6029e-05 0)
(1.48756 -2.24338e-05 0)
(1.48836 -2.86175e-05 0)
(1.48922 -3.41687e-05 0)
(1.49013 -3.87511e-05 0)
(1.49108 -4.21252e-05 0)
(1.49206 -4.41586e-05 0)
(1.49307 -4.4826e-05 0)
(1.49409 -4.42e-05 0)
(1.49512 -4.24347e-05 0)
(1.49615 -3.97458e-05 0)
(1.49715 -3.63868e-05 0)
(1.49813 -3.26261e-05 0)
(1.49906 -2.87238e-05 0)
(1.49994 -2.49139e-05 0)
(1.50075 -2.1391e-05 0)
(1.50147 -1.83011e-05 0)
(1.50211 -1.57381e-05 0)
(1.50264 -1.37414e-05 0)
(1.50305 -1.22983e-05 0)
(1.50333 -1.13497e-05 0)
(1.50348 -1.07994e-05 0)
(1.50347 -1.05256e-05 0)
(1.50331 -1.03933e-05 0)
(1.50299 -1.02649e-05 0)
(1.5025 -1.00093e-05 0)
(1.50184 -9.50889e-06 0)
(1.50101 -8.66483e-06 0)
(1.5 -7.40086e-06 0)
(1.49883 -5.66621e-06 0)
(1.4975 -3.43675e-06 0)
(1.496 -7.1462e-07 0)
(1.49437 2.47365e-06 0)
(1.49259 6.08007e-06 0)
(1.4907 1.00386e-05 0)
(1.4887 1.42689e-05 0)
(1.48662 1.86794e-05 0)
(1.48446 2.3171e-05 0)
(1.48227 2.76408e-05 0)
(1.48005 3.19857e-05 0)
(1.47782 3.61068e-05 0)
(1.47563 3.99122e-05 0)
(1.47348 4.33202e-05 0)
(1.4714 4.62608e-05 0)
(1.46942 4.86772e-05 0)
(1.46756 5.05268e-05 0)
(1.46584 5.17822e-05 0)
(1.46428 5.24314e-05 0)
(1.46288 5.24792e-05 0)
(1.46167 5.19483e-05 0)
(1.46064 5.08799e-05 0)
(1.4598 4.93341e-05 0)
(1.45915 4.73877e-05 0)
(1.45868 4.51262e-05 0)
(1.45837 4.26276e-05 0)
(1.45821 3.9894e-05 0)
(1.45814 3.69261e-05 0)
(1.45832 3.24738e-05 0)
(1.45803 2.3157e-05 0)
(1.45833 1.65774e-05 0)
(1.00674 -0.00606686 0)
(1.03143 -0.0147401 0)
(1.06706 -0.0207972 0)
(1.11267 -0.0242851 0)
(1.16324 -0.0254627 0)
(1.2142 -0.0248546 0)
(1.26225 -0.0230342 0)
(1.3054 -0.0205084 0)
(1.3427 -0.0176758 0)
(1.37398 -0.0148233 0)
(1.39954 -0.0121396 0)
(1.41998 -0.00973375 0)
(1.43603 -0.00765555 0)
(1.44841 -0.0059135 0)
(1.45783 -0.00448985 0)
(1.46488 -0.00335205 0)
(1.47009 -0.00246095 0)
(1.47387 -0.00177623 0)
(1.47656 -0.00125965 0)
(1.47844 -0.000876932 0)
(1.47973 -0.000598564 0)
(1.48058 -0.000399944 0)
(1.48113 -0.000261147 0)
(1.48148 -0.000166436 0)
(1.4817 -0.000103663 0)
(1.48185 -6.3636e-05 0)
(1.48195 -3.95068e-05 0)
(1.48205 -2.62216e-05 0)
(1.48216 -2.00617e-05 0)
(1.4823 -1.8279e-05 0)
(1.48246 -1.8827e-05 0)
(1.48267 -2.01789e-05 0)
(1.48291 -2.1211e-05 0)
(1.48321 -2.11286e-05 0)
(1.48355 -1.94217e-05 0)
(1.48394 -1.58365e-05 0)
(1.4844 -1.03527e-05 0)
(1.4849 -3.1543e-06 0)
(1.48547 5.40993e-06 0)
(1.4861 1.48733e-05 0)
(1.48679 2.47007e-05 0)
(1.48754 3.43384e-05 0)
(1.48835 4.32603e-05 0)
(1.48921 5.10092e-05 0)
(1.49012 5.72275e-05 0)
(1.49107 6.16768e-05 0)
(1.49205 6.42456e-05 0)
(1.49306 6.49453e-05 0)
(1.49408 6.38971e-05 0)
(1.49511 6.13118e-05 0)
(1.49614 5.74643e-05 0)
(1.49714 5.26678e-05 0)
(1.49812 4.72482e-05 0)
(1.49905 4.15209e-05 0)
(1.49993 3.57697e-05 0)
(1.50074 3.02304e-05 0)
(1.50146 2.50802e-05 0)
(1.5021 2.04332e-05 0)
(1.50263 1.63426e-05 0)
(1.50304 1.28062e-05 0)
(1.50332 9.77467e-06 0)
(1.50347 7.16022e-06 0)
(1.50347 4.84638e-06 0)
(1.50331 2.69843e-06 0)
(1.50299 5.74549e-07 0)
(1.5025 -1.66297e-06 0)
(1.50184 -4.13795e-06 0)
(1.501 -6.95283e-06 0)
(1.5 -1.01839e-05 0)
(1.49883 -1.38789e-05 0)
(1.4975 -1.80566e-05 0)
(1.49601 -2.27071e-05 0)
(1.49437 -2.77935e-05 0)
(1.4926 -3.3255e-05 0)
(1.49071 -3.90096e-05 0)
(1.48871 -4.49595e-05 0)
(1.48663 -5.09955e-05 0)
(1.48448 -5.70015e-05 0)
(1.48228 -6.28587e-05 0)
(1.48006 -6.84483e-05 0)
(1.47784 -7.3655e-05 0)
(1.47564 -7.83695e-05 0)
(1.4735 -8.24915e-05 0)
(1.47142 -8.59323e-05 0)
(1.46945 -8.8618e-05 0)
(1.46759 -9.04921e-05 0)
(1.46586 -9.15177e-05 0)
(1.4643 -9.16793e-05 0)
(1.4629 -9.09834e-05 0)
(1.46169 -8.94592e-05 0)
(1.46067 -8.71586e-05 0)
(1.45983 -8.41553e-05 0)
(1.45918 -8.0543e-05 0)
(1.45871 -7.64283e-05 0)
(1.4584 -7.19144e-05 0)
(1.45823 -6.70359e-05 0)
(1.45817 -6.18391e-05 0)
(1.45835 -5.51516e-05 0)
(1.45805 -4.37269e-05 0)
(1.45835 -3.56315e-05 0)
(1.00742 -0.0187084 0)
(1.03394 -0.0449852 0)
(1.07084 -0.0628562 0)
(1.1166 -0.072717 0)
(1.16595 -0.0755944 0)
(1.21451 -0.0732298 0)
(1.25936 -0.0674151 0)
(1.29891 -0.0596758 0)
(1.33256 -0.0511773 0)
(1.36038 -0.0427359 0)
(1.38283 -0.0348724 0)
(1.40057 -0.0278761 0)
(1.41435 -0.0218679 0)
(1.42488 -0.0168542 0)
(1.43281 -0.0127711 0)
(1.43869 -0.00951644 0)
(1.44299 -0.00697247 0)
(1.44609 -0.00502044 0)
(1.44827 -0.00354921 0)
(1.44978 -0.00245994 0)
(1.45079 -0.00166798 0)
(1.45145 -0.00110304 0)
(1.45187 -0.00070834 0)
(1.45213 -0.000439121 0)
(1.45229 -0.000260887 0)
(1.45239 -0.000147561 0)
(1.45248 -7.97214e-05 0)
(1.45256 -4.30376e-05 0)
(1.45266 -2.69546e-05 0)
(1.45279 -2.36641e-05 0)
(1.45295 -2.7344e-05 0)
(1.45314 -3.36373e-05 0)
(1.45338 -3.93149e-05 0)
(1.45367 -4.20713e-05 0)
(1.454 -4.04044e-05 0)
(1.45438 -3.35393e-05 0)
(1.45482 -2.1358e-05 0)
(1.45532 -4.31369e-06 0)
(1.45587 1.66776e-05 0)
(1.45649 4.03638e-05 0)
(1.45716 6.52937e-05 0)
(1.45789 8.99561e-05 0)
(1.45868 0.000112911 0)
(1.45952 0.000132904 0)
(1.46041 0.000148951 0)
(1.46134 0.000160395 0)
(1.4623 0.000166924 0)
(1.46329 0.000168565 0)
(1.46429 0.000165643 0)
(1.46529 0.000158726 0)
(1.46629 0.000148561 0)
(1.46727 0.000135998 0)
(1.46822 0.000121919 0)
(1.46913 0.000107173 0)
(1.46998 9.25185e-05 0)
(1.47077 7.85816e-05 0)
(1.47148 6.58283e-05 0)
(1.47209 5.45537e-05 0)
(1.47261 4.48843e-05 0)
(1.47301 3.67917e-05 0)
(1.47328 3.01141e-05 0)
(1.47342 2.45824e-05 0)
(1.47342 1.98509e-05 0)
(1.47327 1.55292e-05 0)
(1.47295 1.12139e-05 0)
(1.47248 6.51848e-06 0)
(1.47184 1.09766e-06 0)
(1.47103 -5.33377e-06 0)
(1.47006 -1.29886e-05 0)
(1.46892 -2.20004e-05 0)
(1.46762 -3.24212e-05 0)
(1.46617 -4.42233e-05 0)
(1.46458 -5.73039e-05 0)
(1.46286 -7.14939e-05 0)
(1.46102 -8.65679e-05 0)
(1.45908 -0.000102256 0)
(1.45705 -0.000118258 0)
(1.45496 -0.000134251 0)
(1.45282 -0.000149907 0)
(1.45066 -0.000164896 0)
(1.4485 -0.000178902 0)
(1.44636 -0.000191626 0)
(1.44427 -0.000202797 0)
(1.44225 -0.000212179 0)
(1.44033 -0.000219575 0)
(1.43851 -0.000224839 0)
(1.43683 -0.000227875 0)
(1.4353 -0.000228645 0)
(1.43394 -0.000227168 0)
(1.43276 -0.000223522 0)
(1.43175 -0.000217852 0)
(1.43093 -0.000210356 0)
(1.43029 -0.00020129 0)
(1.42982 -0.000190941 0)
(1.42951 -0.000179584 0)
(1.42935 -0.0001673 0)
(1.42927 -0.000154191 0)
(1.42945 -0.000136598 0)
(1.42914 -0.000104689 0)
(1.42944 -8.23901e-05 0)
(1.00878 -0.0328718 0)
(1.03888 -0.0774159 0)
(1.07791 -0.106054 0)
(1.12333 -0.120398 0)
(1.16954 -0.123023 0)
(1.2127 -0.117364 0)
(1.25077 -0.106604 0)
(1.28301 -0.0932737 0)
(1.30945 -0.0791928 0)
(1.33058 -0.0655677 0)
(1.34711 -0.0531177 0)
(1.3598 -0.0422034 0)
(1.36938 -0.0329377 0)
(1.3765 -0.0252749 0)
(1.38173 -0.0190777 0)
(1.3855 -0.0141647 0)
(1.38819 -0.0103408 0)