/*--------------------------------*- C++ -*----------------------------------*\
  =========                 |
  \\      /  F ield         | OpenFOAM: The Open Source CFD Toolbox
   \\    /   O peration     | Website:  https://openfoam.org
    \\  /    A nd           | Version:  dev
     \\/     M anipulation  |
\*---------------------------------------------------------------------------*/
FoamFile
{
    format      ascii;
    class       volScalarField;
    location    "20";
    object      h;
}
// * * * * * * * * * * * * * * * * * * * * * * * * * * * * * * * * * * * * * //

dimensions      [0 1 0 0 0 0 0];

internalField   nonuniform List<scalar> 
10000
(
9.17763e-11
4.69395e-10
1.78627e-09
6.41283e-09
2.19633e-08
7.17372e-08
2.23231e-07
6.61109e-07
1.86147e-06
4.97827e-06
1.2634e-05
3.04008e-05
6.93114e-05
0.000149646
0.000305858
0.000591733
0.00108384
0.00188042
0.00309287
0.00482834
0.0071648
0.0101233
0.0136445
0.0175753
0.0216711
0.0256118
0.0290314
0.0315537
0.0328325
0.0325909
0.0306555
0.0269821
0.0216664
0.0149382
0.00713649
-0.00132885
-0.0100241
-0.0185375
-0.0265185
-0.0337027
-0.0399236
-0.0451102
-0.0492748
-0.0524933
-0.0548842
-0.0565872
-0.0577444
-0.0584858
-0.0589175
-0.0591142
-0.0591142
-0.0589177
-0.0584861
-0.0577448
-0.0565876
-0.0548847
-0.0524939
-0.0492754
-0.0451108
-0.0399241
-0.0337031
-0.0265188
-0.0185376
-0.0100239
-0.0013285
0.00713705
0.0149389
0.0216673
0.026983
0.0306564
0.0325917
0.0328332
0.0315542
0.0290318
0.0256121
0.0216711
0.0175753
0.0136443
0.0101231
0.00716458
0.00482814
0.0030927
0.00188028
0.00108374
0.000591669
0.000305819
0.000149623
6.9299e-05
3.03945e-05
1.2631e-05
4.97694e-06
1.86091e-06
6.60886e-07
2.23147e-07
7.17074e-08
2.19532e-08
6.4096e-09
1.78529e-09
4.69115e-10
9.17176e-11
4.69395e-10
2.36994e-09
8.86157e-09
3.12224e-08
1.0488e-07
3.35785e-07
1.0236e-06
2.96779e-06
8.17576e-06
2.13788e-05
5.30156e-05
0.000124576
0.000277198
0.000583786
0.00116335
0.00219363
0.00391514
0.00661836
0.0106075
0.0161409
0.0233568
0.0322022
0.0423835
0.0533543
0.0643445
0.0744257
0.0826019
0.0879115
0.0895333
0.0868828
0.0796917
0.0680543
0.0524311
0.0336031
0.012583
-0.00950358
-0.0315438
-0.0525492
-0.0717376
-0.0885761
-0.102788
-0.114328
-0.123338
-0.13009
-0.134936
-0.138254
-0.140408
-0.141721
-0.142448
-0.142766
-0.142766
-0.142448
-0.141722
-0.140409
-0.138255
-0.134938
-0.130092
-0.123339
-0.11433
-0.10279
-0.0885773
-0.0717384
-0.0525497
-0.0315438
-0.00950306
0.0125841
0.0336046
0.0524329
0.0680564
0.0796939
0.0868849
0.0895351
0.0879131
0.082603
0.0744265
0.0643448
0.0533543
0.0423833
0.0322018
0.0233563
0.0161403
0.010607
0.00661796
0.00391484
0.00219342
0.00116322
0.000583706
0.000277154
0.000124553
5.30042e-05
2.13736e-05
8.1735e-06
2.96687e-06
1.02324e-06
3.35655e-07
1.04835e-07
3.12078e-08
8.85702e-09
2.36862e-09
4.69114e-10
1.78627e-09
8.86157e-09
3.2342e-08
1.11018e-07
3.62907e-07
1.12945e-06
3.34297e-06
9.39961e-06
2.50797e-05
6.34336e-05
0.000151945
0.000344397
0.000738153
0.00149536
0.00286267
0.00517934
0.00886061
0.0143458
0.0220099
0.0320532
0.0443967
0.058614
0.0739231
0.0892409
0.103288
0.11472
0.122271
0.124889
0.121861
0.11291
0.0982518
0.078587
0.0550298
0.0289706
0.00190489
-0.024741
-0.0497546
-0.0722309
-0.0916103
-0.107663
-0.120441
-0.130204
-0.137346
-0.142325
-0.145611
-0.147642
-0.148801
-0.149397
-0.149666
-0.149762
-0.149762
-0.149666
-0.149398
-0.148802
-0.147643
-0.145612
-0.142326
-0.137347
-0.130206
-0.120443
-0.107665
-0.0916117
-0.0722321
-0.0497553
-0.0247413
0.00190522
0.0289716
0.0550313
0.078589
0.0982541
0.112913
0.121863
0.124891
0.122273
0.114721
0.103289
0.0892414
0.0739231
0.0586136
0.0443961
0.0320525
0.0220091
0.0143451
0.00886008
0.00517894
0.0028624
0.00149519
0.000738052
0.000344342
0.000151916
6.342e-05
2.50735e-05
9.397e-06
3.34193e-06
1.12905e-06
3.62767e-07
1.1097e-07
3.23268e-08
8.85702e-09
1.78528e-09
6.41283e-09
3.12224e-08
1.11018e-07
3.70444e-07
1.17553e-06
3.54663e-06
1.01616e-05
2.76149e-05
7.10947e-05
0.0001732
0.000398858
0.000867457
0.00178039
0.0034467
0.00629261
0.0108362
0.0176121
0.0270467
0.0393071
0.0541709
0.0709624
0.088585
0.105641
0.120605
0.132006
0.138588
0.139447
0.134133
0.122728
0.105862
0.0846717
0.0606574
0.0354832
0.0107478
-0.0122143
-0.0324638
-0.0495001
-0.0632259
-0.0738577
-0.0818129
-0.0875997
-0.0917286
-0.0946526
-0.0967357
-0.0982456
-0.0993616
-0.100192
-0.100792
-0.101188
-0.101385
-0.101385
-0.101188
-0.100792
-0.100192
-0.0993616
-0.0982457
-0.0967359
-0.0946529
-0.0917292
-0.0876005
-0.0818139
-0.0738589
-0.0632272
-0.0495014
-0.0324649
-0.0122151
0.0107474
0.0354833
0.0606582
0.0846731
0.105864
0.12273
0.134136
0.139449
0.13859
0.132007
0.120606
0.105642
0.0885852
0.0709621
0.0541703
0.0393063
0.0270459
0.0176114
0.0108356
0.00629215
0.00344638
0.00178019
0.00086734
0.000398794
0.000173168
7.10794e-05
2.76081e-05
1.01588e-05
3.54552e-06
1.17512e-06
3.703e-07
1.1097e-07
3.12078e-08
6.4096e-09
2.19633e-08
1.0488e-07
3.62907e-07
1.17553e-06
3.61554e-06
1.05563e-05
2.92208e-05
7.65819e-05
0.000189772
0.000444068
0.00098008
0.00203802
0.0039895
0.00734749
0.0127284
0.0207451
0.0318339
0.0460541
0.0629334
0.0814297
0.100043
0.117047
0.130755
0.139758
0.143071
0.140223
0.131292
0.116933
0.0983379
0.0771342
0.055166
0.0342109
0.0156966
0.000501961
-0.0111089
-0.0194178
-0.0250878
-0.0289608
-0.0318709
-0.0345082
-0.0373451
-0.0406207
-0.0443671
-0.048459
-0.0526712
-0.0567317
-0.0603655
-0.0633253
-0.0654132
-0.066492
-0.0664919
-0.0654129
-0.0633249
-0.0603648
-0.0567309
-0.0526702
-0.0484579
-0.044366
-0.0406197
-0.0373442
-0.0345076
-0.0318706
-0.0289608
-0.0250882
-0.0194186
-0.01111
0.000500792
0.0156955
0.0342102
0.0551658
0.0771346
0.0983388
0.116934
0.131294
0.140225
0.143073
0.13976
0.130757
0.117048
0.100044
0.0814296
0.0629329
0.0460534
0.031833
0.0207443
0.0127277
0.00734697
0.00398914
0.00203779
0.000979949
0.000443998
0.000189736
7.65655e-05
2.92137e-05
1.05534e-05
3.61441e-06
1.17512e-06
3.62767e-07
1.04835e-07
2.19532e-08
7.17372e-08
3.35785e-07
1.12945e-06
3.54663e-06
1.05563e-05
2.9775e-05
7.9473e-05
0.000200426
0.000476866
0.00106883
0.00225368
0.00446484
0.00830258
0.0144813
0.0236847
0.0363336
0.0523264
0.0708627
0.090454
0.109159
0.124964
0.13617
0.141642
0.140887
0.134025
0.121725
0.105157
0.0859436
0.06601
0.0473106
0.0314667
0.0194424
0.0113836
0.00667334
0.0041698
0.00252965
0.000514917
-0.00279069
-0.00788329
-0.0148465
-0.023431
-0.0331673
-0.0434785
-0.0537734
-0.0635107
-0.0722342
-0.0795861
-0.085303
-0.089205
-0.091182
-0.0911819
-0.0892049
-0.0853027
-0.0795857
-0.0722336
-0.0635099
-0.0537724
-0.0434772
-0.0331658
-0.0234293
-0.0148447
-0.00788152
-0.0027891
0.000516158
0.0025304
0.00416998
0.00667295
0.0113827
0.0194413
0.0314656
0.0473098
0.0660097
0.0859438
0.105158
0.121726
0.134027
0.140889
0.141643
0.136172
0.124966
0.10916
0.0904543
0.0708624
0.0523258
0.0363327
0.0236839
0.0144806
0.00830201
0.00446445
0.00225343
0.00106869
0.000476791
0.000200389
7.9456e-05
2.97678e-05
1.05534e-05
3.54552e-06
1.12905e-06
3.35655e-07
7.17073e-08
2.23231e-07
1.0236e-06
3.34297e-06
1.01616e-05
2.92208e-05
7.9473e-05
0.000204105
0.000494137
0.00112576
0.00240942
0.0048366
0.00909268
0.0159897
0.0262795
0.0403538
0.0579163
0.0777864
0.097985
0.116139
0.130056
0.138222
0.140009
0.135584
0.125668
0.111346
0.094009
0.0753526
0.0572736
0.0415649
0.0294779
0.0213598
0.016562
0.0136738
0.0109693
0.00688266
0.000353443
-0.00902882
-0.0210693
-0.0351345
-0.0503635
-0.0658598
-0.0808305
-0.094662
-0.106941
-0.117437
-0.126064
-0.132831
-0.137804
-0.14106
-0.142669
-0.142669
-0.14106
-0.137804
-0.132832
-0.126064
-0.117438
-0.106941
-0.0946621
-0.0808303
-0.0658593
-0.0503626
-0.0351332
-0.0210676
-0.00902697
0.000355289
0.00688428
0.0109705
0.0136744
0.0165619
0.0213592
0.0294771
0.0415641
0.057273
0.0753524
0.0940092
0.111347
0.125669
0.135585
0.140011
0.138223
0.130057
0.11614
0.0979855
0.0777863
0.0579157
0.040353
0.0262787
0.0159889
0.00909208
0.00483618
0.00240916
0.00112562
0.000494059
0.000204067
7.9456e-05
2.92137e-05
1.01588e-05
3.34193e-06
1.02324e-06
2.23147e-07
6.61109e-07
2.96779e-06
9.39961e-06
2.76149e-05
7.65819e-05
0.000200426
0.000494137
0.00114539
0.00249113
0.00507353
0.00965746
0.0171511
0.0283768
0.043697
0.0626088
0.0835261
0.103963
0.121153
0.132862
0.137976
0.13658
0.129561
0.118077
0.103261
0.0862638
0.0684618
0.0514896
0.0369203
0.0256989
0.0176908
0.0116683
0.00577083
-0.00180899
-0.0122448
-0.0258066
-0.0419252
-0.0594807
-0.0771644
-0.0937873
-0.108473
-0.120729
-0.130419
-0.137682
-0.142836
-0.146284
-0.148442
-0.149691
-0.150347
-0.150652
-0.150765
-0.150765
-0.150652
-0.150348
-0.149691
-0.148443
-0.146285
-0.142837
-0.137683
-0.13042
-0.120731
-0.108475
-0.0937881
-0.0771647
-0.0594804
-0.0419243
-0.0258053
-0.0122432
-0.0018075
0.00577198
0.0116689
0.0176909
0.0256986
0.0369198
0.0514892
0.0684617
0.086264
0.103261
0.118078
0.129562
0.136582
0.137977
0.132863
0.121155
0.103964
0.0835262
0.0626083
0.0436962
0.0283759
0.0171503
0.00965683
0.0050731
0.00249086
0.00114524
0.000494059
0.000200389
7.65655e-05
2.76081e-05
9.397e-06
2.96687e-06
6.60885e-07
1.86147e-06
8.17576e-06
2.50797e-05
7.10947e-05
0.000189772
0.000476866
0.00112576
0.00249113
0.00515492
0.00995184
0.0178832
0.0298497
0.0462009
0.0662416
0.0879843
0.10844
0.124495
0.133993
0.136409
0.132675
0.124335
0.112662
0.09834
0.0818204
0.0639226
0.0460925
0.0299961
0.0166721
0.00586932
-0.0039013
-0.0146052
-0.0277133
-0.0435784
-0.0613898
-0.0795797
-0.0964027
-0.110431
-0.120827
-0.127393
-0.130447
-0.130636
-0.128746
-0.125551
-0.121721
-0.117784
-0.114123
-0.110992
-0.108549
-0.106884
-0.106042
-0.106042
-0.106884
-0.108549
-0.110992
-0.114123
-0.117785
-0.121722
-0.125552
-0.128748
-0.130638
-0.130449
-0.127395
-0.120829
-0.110432
-0.096404
-0.0795804
-0.0613897
-0.0435778
-0.0277123
-0.0146042
-0.00390053
0.00586969
0.0166721
0.029996
0.0460926
0.0639228
0.0818208
0.0983405
0.112663
0.124336
0.132676
0.13641
0.133995
0.124496
0.108441
0.0879846
0.0662413
0.0462001
0.0298488
0.0178824
0.00995119
0.00515449
0.00249086
0.00112562
0.000476791
0.000189736
7.10794e-05
2.50735e-05
8.1735e-06
1.86091e-06
4.97827e-06
2.13788e-05
6.34336e-05
0.0001732
0.000444068
0.00106883
0.00240942
0.00507353
0.00995184
0.0181333
0.0306091
0.0477492
0.0687102
0.0911387
0.111562
0.126542
0.134079
0.134348
0.129183
0.12063
0.109664
0.0960227
0.079139
0.0593455
0.038342
0.0185146
0.0015477
-0.0126189
-0.0256485
-0.0395858
-0.0554886
-0.0728249
-0.0898298
-0.104372
-0.114775
-0.120276
-0.121057
-0.117989
-0.11227
-0.105112
-0.0975278
-0.0902451
-0.0837083
-0.0781296
-0.07356
-0.0699552
-0.0672276
-0.0652811
-0.064033
-0.0634241
-0.0634241
-0.064033
-0.065281
-0.0672274
-0.069955
-0.0735598
-0.0781294
-0.0837082
-0.0902452
-0.0975282
-0.105113
-0.112271
-0.11799
-0.121059
-0.120278
-0.114777
-0.104374
-0.089831
-0.0728253
-0.0554884
-0.0395854
-0.0256481
-0.0126187
0.00154766
0.0185147
0.0383424
0.0593462
0.0791399
0.0960235
0.109665
0.12063
0.129184
0.134349
0.134081
0.126544
0.111563
0.0911391
0.06871
0.0477484
0.0306082
0.0181325
0.00995119
0.0050731
0.00240916
0.00106869
0.000443998
0.000173168
6.342e-05
2.13736e-05
4.97693e-06
1.2634e-05
5.30156e-05
0.000151945
0.000398858
0.00098008
0.00225368
0.0048366
0.00965746
0.0178832
0.0306091
0.0482728
0.0699569
0.0930108
0.113508
0.12768
0.13367
0.132382
0.126541
0.118512
0.108586
0.0951575
0.0765617
0.0530228
0.0271883
0.00284825
-0.0172904
-0.0331518
-0.0469318
-0.0611247
-0.0765654
-0.0919324
-0.104757
-0.112869
-0.115319
-0.112525
-0.105857
-0.0970212
-0.0875495
-0.0785306
-0.0705602
-0.0638338
-0.0582945
-0.0537681
-0.0500625
-0.0470199
-0.0445361
-0.0425569
-0.041064
-0.0400603
-0.0395548
-0.0395548
-0.0400603
-0.0410641
-0.0425569
-0.0445361
-0.0470199
-0.0500624
-0.053768
-0.0582943
-0.0638337
-0.0705601
-0.0785307
-0.0875498
-0.097022
-0.105858
-0.112527
-0.115321
-0.112871
-0.104758
-0.0919336
-0.0765659
-0.0611248
-0.0469319
-0.0331522
-0.017291
0.00284796
0.0271887
0.0530238
0.0765631
0.0951588
0.108587
0.118512
0.126542
0.132383
0.133672
0.127681
0.11351
0.0930114
0.0699566
0.0482721
0.0306082
0.0178824
0.00965683
0.00483618
0.00225343
0.000979949
0.000398794
0.000151916
5.30042e-05
1.2631e-05
3.04008e-05
0.000124576
0.000344397
0.000867457
0.00203802
0.00446484
0.00909268
0.0171511
0.0298497
0.0477492
0.0699569
0.0936305
0.114437
0.128224
0.133181
0.130855
0.124816
0.117629
0.108649
0.0947022
0.0731493
0.0446657
0.0135444
-0.0145905
-0.036053
-0.051106
-0.0631361
-0.0755611
-0.0890708
-0.101408
-0.109409
-0.11119
-0.106919
-0.0982734
-0.0874534
-0.076326
-0.06601
-0.0569043
-0.0489315
-0.041813
-0.0352796
-0.0291713
-0.0234502
-0.018173
-0.0134399
-0.00935794
-0.00601507
-0.00347184
-0.00176329
-0.000905969
-0.000905945
-0.00176322
-0.00347174
-0.00601496
-0.00935783
-0.0134398
-0.018173
-0.0234502
-0.0291713
-0.0352797
-0.041813
-0.0489314
-0.0569042
-0.0660101
-0.0763262
-0.087454
-0.0982746
-0.106921
-0.111192
-0.109411
-0.10141
-0.0890717
-0.0755615
-0.0631365
-0.0511068
-0.0360542
-0.0145914
0.0135443
0.0446668
0.0731511
0.0947039
0.10865
0.11763
0.124816
0.130856
0.133182
0.128226
0.114438
0.0936311
0.0699566
0.0477484
0.0298488
0.0171503
0.00909208
0.00446445
0.00203779
0.00086734
0.000344342
0.000124553
3.03945e-05
6.93114e-05
0.000277198
0.000738153
0.00178039
0.0039895
0.00830258
0.0159897
0.0283768
0.0462009
0.0687102
0.0930108
0.114437
0.128382
0.132874
0.129913
0.123851
0.117474
0.109155
0.0941036
0.0689044
0.0352081
-0.000575111
-0.0309877
-0.0518254
-0.0643041
-0.0734996
-0.0839036
-0.0957522
-0.105355
-0.108657
-0.104353
-0.094108
-0.0808155
-0.0670047
-0.054127
-0.0425546
-0.03206
-0.0223208
-0.0131759
-0.00468543
0.00293925
0.00947174
0.0147591
0.0187703
0.0216018
0.0234372
0.0245135
0.0250682
0.0253108
0.0253922
0.0253923
0.0253111
0.0250687
0.0245142
0.0234381
0.0216028
0.0187713
0.0147601
0.00947268
0.00294005
-0.00468479
-0.0131754
-0.0223205
-0.0320597
-0.0425544
-0.054127
-0.067005
-0.0808163
-0.0941094
-0.104355
-0.10866
-0.105357
-0.0957533
-0.083904
-0.0735
-0.0643051
-0.0518271
-0.0309893
-0.000575684
0.035209
0.0689064
0.0941057
0.109157
0.117475
0.123851
0.129914
0.132875
0.128384
0.114438
0.0930114
0.06871
0.0462001
0.0283759
0.0159889
0.00830201
0.00398914
0.00178019
0.000738052
0.000277154
6.9299e-05
0.000149646
0.000583786
0.00149536
0.0034467
0.00734749
0.0144813
0.0262795
0.043697
0.0662416
0.0911387
0.113508
0.128224
0.132874
0.129598
0.123438
0.117585
0.109655
0.0933276
0.064516
0.0261232
-0.0131733
-0.0444519
-0.063634
-0.0732128
-0.0798361
-0.0887404
-0.0992446
-0.105807
-0.103537
-0.0923275
-0.0760222
-0.0588
-0.0430271
-0.0293941
-0.0176735
-0.00749211
0.0011397
0.00788777
0.0123681
0.0143464
0.0138793
0.0113239
0.00721684
0.00219342
-0.00313955
-0.0082584
-0.0127529
-0.016335
-0.0188121
-0.0200761
-0.020076
-0.018812
-0.0163348
-0.0127526
-0.00825795
-0.00313888
0.00219434
0.00721804
0.0113253
0.013881
0.0143482
0.0123699
0.00788934
0.00114105
-0.00749101
-0.0176726
-0.0293934
-0.0430266
-0.0588
-0.0760229
-0.0923293
-0.103539
-0.10581
-0.0992461
-0.0887408
-0.0798365
-0.0732138
-0.0636359
-0.044454
-0.0131745
0.0261237
0.0645181
0.09333
0.109657
0.117585
0.123438
0.129598
0.132875
0.128226
0.11351
0.0911391
0.0662413
0.0436962
0.0262787
0.0144806
0.00734697
0.00344638
0.00149519
0.000583706
0.000149623
0.000305858
0.00116335
0.00286267
0.00629261
0.0127284
0.0236847
0.0403538
0.0626088
0.0879843
0.111562
0.12768
0.133181
0.129913
0.123438
0.117656
0.109938
0.0926507
0.0609157
0.0187686
-0.0229645
-0.0543646
-0.0720142
-0.0794784
-0.0841168
-0.0913586
-0.0996671
-0.101953
-0.0930327
-0.074844
-0.0540672
-0.0360253
-0.0220751
-0.0116097
-0.00403704
0.000839125
0.00269557
0.00111344
-0.0038199
-0.0114858
-0.0209173
-0.0309788
-0.0406768
-0.049303
-0.0564355
-0.0619849
-0.0660322
-0.0688159
-0.0705949
-0.071624
-0.0720882
-0.0720883
-0.0716244
-0.0705955
-0.0688167
-0.0660331
-0.061986
-0.0564365
-0.0493038
-0.0406773
-0.0309789
-0.0209169
-0.0114849
-0.00381851
0.00111513
0.00269735
0.000840855
-0.00403543
-0.0116082
-0.0220737
-0.0360242
-0.0540668
-0.074845
-0.0930349
-0.101956
-0.0996689
-0.0913593
-0.0841172
-0.0794795
-0.0720163
-0.054367
-0.0229661
0.0187688
0.0609177
0.0926533
0.109939
0.117656
0.123438
0.129914
0.133182
0.127681
0.111563
0.0879846
0.0626083
0.040353
0.0236839
0.0127277
0.00629215
0.0028624
0.00116322
0.000305819
0.000591733
0.00219363
0.00517934
0.0108362
0.0207451
0.0363336
0.0579163
0.0835261
0.10844
0.126542
0.13367
0.130855
0.123851
0.117585
0.109938
0.0923821
0.0588969
0.014056
-0.0294573
-0.0609547
-0.0779094
-0.0843893
-0.087154
-0.0914222
-0.0959367
-0.0933432
-0.078725
-0.0562482
-0.0352789
-0.0215188
-0.0140317
-0.0100593
-0.00894879
-0.0109685
-0.0161662
-0.0242731
-0.0340799
-0.0438248
-0.0520033
-0.0575782
-0.0601012
-0.0598147
-0.0572497
-0.0531709
-0.0483574
-0.0434507
-0.039015
-0.0353966
-0.0328737
-0.0315739
-0.0315739
-0.0328738
-0.0353969
-0.0390155
-0.0434513
-0.0483584
-0.0531722
-0.0572513
-0.0598165
-0.0601032
-0.0575801
-0.0520049
-0.0438258
-0.0340803
-0.0242728
-0.0161653
-0.0109673
-0.0089474
-0.0100578
-0.01403
-0.0215169
-0.0352773
-0.056248
-0.0787265
-0.0933455
-0.0959386
-0.0914231
-0.0871547
-0.0843905
-0.0779115
-0.0609572
-0.0294591
0.014056
0.0588989
0.0923847
0.109939
0.117585
0.123851
0.130856
0.133672
0.126544
0.108441
0.0835262
0.0579157
0.0363327
0.0207443
0.0108356
0.00517894
0.00219342
0.000591669
0.00108384
0.00391514
0.00886061
0.0176121
0.0318339
0.0523264
0.0777864
0.103963
0.124495
0.134079
0.132382
0.124816
0.117474
0.109655
0.0926507
0.0588969
0.012442
-0.0326481
-0.0646874
-0.0818668
-0.0882966
-0.0889372
-0.0885719
-0.0882371
-0.0822631
-0.065703
-0.0435157
-0.0265319
-0.0198889
-0.0195948
-0.0203163
-0.0220506
-0.0264784
-0.0328173
-0.0395477
-0.0448623
-0.046763
-0.044553
-0.0387159
-0.030204
-0.0203934
-0.0105921
-0.0015814
0.00596688
0.0119813
0.016441
0.0195846
0.021652
0.0228756
0.0234433
0.0234434
0.0228759
0.0216525
0.0195852
0.0164418
0.0119821
0.00596762
-0.00158087
-0.0105919
-0.0203937
-0.0302048
-0.0387173
-0.0445548
-0.0467649
-0.044864
-0.0395488
-0.0328177
-0.0264783
-0.0220501
-0.0203157
-0.0195939
-0.0198871
-0.0265297
-0.0435145
-0.0657036
-0.0822647
-0.0882384
-0.0885728
-0.0889382
-0.0882981
-0.0818689
-0.06469
-0.03265
0.0124419
0.0588989
0.0926533
0.109657
0.117475
0.124816
0.132383
0.134081
0.124496
0.103964
0.0777863
0.0523258
0.031833
0.0176114
0.00886008
0.00391484
0.00108374
0.00188042
0.00661836
0.0143458
0.0270467
0.0460541
0.0708627
0.097985
0.121153
0.133993
0.134348
0.126541
0.117629
0.109155
0.0933276
0.0609157
0.014056
-0.0326481
-0.0658954
-0.083919
-0.0909105
-0.0895659
-0.0838146
-0.0787797
-0.0725765
-0.0588925
-0.0403218
-0.0276891
-0.0257912
-0.0285301
-0.0287414
-0.0277299
-0.0299081
-0.033471
-0.0347713
-0.0328291
-0.0269442
-0.0179146
-0.00810877
0.000694289
0.00740746
0.011208
0.0124304
0.0115487
0.00913244
0.00609001
0.00273326
-0.000249611
-0.00276898
-0.00448314
-0.00538714
-0.0053871
-0.00448302
-0.00276876
-0.000249258
0.00273379
0.00609077
0.00913345
0.0115499
0.0124319
0.0112095
0.0074089
0.000695372
-0.00810825
-0.0179148
-0.0269451
-0.0328303
-0.0347725
-0.0334719
-0.0299083
-0.0277299
-0.0287417
-0.0285301
-0.0257902
-0.0276872
-0.0403206
-0.0588926
-0.0725773
-0.0787802
-0.0838152
-0.0895672
-0.0909123
-0.0839212
-0.0658979
-0.03265
0.014056
0.0609177
0.09333
0.109157
0.11763
0.126542
0.134349
0.133995
0.121155
0.0979855
0.0708624
0.0460534
0.0270459
0.0143451
0.00661796
0.00188028
0.00309287
0.0106075
0.0220099
0.0393071
0.0629334
0.090454
0.116139
0.132862
0.136409
0.129183
0.118512
0.108649
0.0941036
0.064516
0.0187686
-0.0294573
-0.0646874
-0.083919
-0.0918362
-0.0895977
-0.0794171
-0.0705803
-0.0667865
-0.0592657
-0.0444185
-0.0322523
-0.0296062
-0.0307463
-0.0279842
-0.0232315
-0.0235476
-0.0265646
-0.0249449
-0.0194258
-0.0125683
-0.00543619
-0.000932838
-0.000278347
-0.00259741
-0.00722768
-0.0132035
-0.0189039
-0.0243208
-0.0285358
-0.0317831
-0.0340785
-0.0355046
-0.0364549
-0.0368994
-0.0371344
-0.0371344
-0.0368996
-0.0364552
-0.035505
-0.034079
-0.0317836
-0.0285363
-0.0243211
-0.0189039
-0.0132032
-0.00722696
-0.00259629
-0.000276975
-0.000931424
-0.00543516
-0.0125679
-0.019426
-0.0249457
-0.0265654
-0.0235474
-0.0232312
-0.0279845
-0.0307467
-0.0296057
-0.0322512
-0.044418
-0.0592662
-0.0667866
-0.0705798
-0.0794173
-0.0895991
-0.0918381
-0.0839212
-0.06469
-0.0294591
0.0187688
0.0645181
0.0941057
0.10865
0.118512
0.129184
0.13641
0.132863
0.11614
0.0904543
0.0629329
0.0393063
0.0220091
0.010607
0.0030927
0.00482834
0.0161409
0.0320532
0.0541709
0.0814297
0.109159
0.130056
0.137976
0.132675
0.12063
0.108586
0.0947022
0.0689044
0.0261232
-0.0229645
-0.0609547
-0.0818668
-0.0909105
-0.0895977
-0.0776408
-0.0659457
-0.064605
-0.0636199
-0.0505796
-0.0339984
-0.0265555
-0.0253982
-0.0224283
-0.0179369
-0.0190146
-0.0243067
-0.0226969
-0.0154573
-0.0110793
-0.00911306
-0.0100002
-0.0145789
-0.0198962
-0.0242609
-0.027807
-0.0293116
-0.0291949
-0.0284465
-0.0263662
-0.0247293
-0.0225336
-0.0210354
-0.0195882
-0.0187484
-0.0182607
-0.0182607
-0.0187484
-0.0195883
-0.0210356
-0.0225339
-0.0247297
-0.0263667
-0.0284472
-0.0291956
-0.0293125
-0.0278078
-0.0242614
-0.0198964
-0.0145785
-0.00999928
-0.00911208
-0.0110784
-0.0154569
-0.0226976
-0.0243074
-0.0190142
-0.0179362
-0.0224282
-0.0253981
-0.0265548
-0.0339977
-0.0505802
-0.0636211
-0.0646049
-0.0659447
-0.0776408
-0.0895991
-0.0909123
-0.0818689
-0.0609572
-0.0229661
0.0261237
0.0689064
0.0947039
0.108587
0.12063
0.132676
0.137977
0.130057
0.10916
0.0814296
0.0541703
0.0320525
0.0161403
0.00482814
0.0071648
0.0233568
0.0443967
0.0709624
0.100043
0.124964
0.138222
0.13658
0.124335
0.109664
0.0951575
0.0731493
0.0352081
-0.0131733
-0.0543646
-0.0779094
-0.0882966
-0.0895659
-0.0794171
-0.0659457
-0.0642073
-0.0673347
-0.0549579
-0.0318858
-0.019071
-0.0184323
-0.019523
-0.019005
-0.0207638
-0.0261764
-0.0247426
-0.0149765
-0.0119625
-0.0149831
-0.0172124
-0.0211816
-0.0241724
-0.0239055
-0.0224431
-0.0204748
-0.0169072
-0.0147031
-0.0120633
-0.0100873
-0.00890855
-0.00743403
-0.00708814
-0.00622102
-0.00616134
-0.00588083
-0.00588081
-0.00616128
-0.00622092
-0.00708803
-0.00743387
-0.00890843
-0.0100871
-0.0120632
-0.0147032
-0.0169073
-0.0204753
-0.0224437
-0.0239062
-0.0241733
-0.021182
-0.0172124
-0.0149827
-0.0119614
-0.0149758
-0.0247434
-0.0261773
-0.0207637
-0.0190046
-0.0195227
-0.0184314
-0.0190694
-0.031885
-0.0549593
-0.0673365
-0.0642071
-0.0659447
-0.0794173
-0.0895672
-0.0882981
-0.0779115
-0.054367
-0.0131745
0.035209
0.0731511
0.0951588
0.109665
0.124336
0.136582
0.138223
0.124966
0.100044
0.0709621
0.0443961
0.0233563
0.00716458
0.0101233
0.0322022
0.058614
0.088585
0.117047
0.13617
0.140009
0.129561
0.112662
0.0960227
0.0765617
0.0446657
-0.000575111
-0.0444519
-0.0720142
-0.0843893
-0.0889372
-0.0838146
-0.0705803
-0.064605
-0.0673347
-0.0564158
-0.0291792
-0.0123069
-0.0145312
-0.0211368
-0.0244515
-0.0248888
-0.0257794
-0.0242156
-0.0142224
-0.0108932
-0.0187751
-0.0208172
-0.0204062
-0.0210544
-0.0178548
-0.0140438
-0.0120329
-0.00922533
-0.00681682
-0.00642941
-0.00392987
-0.00428362
-0.00267008
-0.0027726
-0.00212559
-0.00200843
-0.00186767
-0.00179274
-0.00179268
-0.00186761
-0.00200827
-0.00212542
-0.00277235
-0.00266979
-0.00428335
-0.00392948
-0.00642914
-0.00681646
-0.00922509
-0.0120329
-0.0140438
-0.0178552
-0.0210551
-0.0204067
-0.0208179
-0.0187754
-0.010892
-0.0142216
-0.0242163
-0.0257801
-0.0248893
-0.0244518
-0.0211367
-0.0145298
-0.0123044
-0.0291781
-0.0564174
-0.0673365
-0.0646049
-0.0705798
-0.0838152
-0.0889382
-0.0843905
-0.0720163
-0.044454
-0.000575684
0.0446668
0.0765631
0.0960235
0.112663
0.129562
0.140011
0.136172
0.117048
0.0885852
0.0586136
0.0322018
0.0101231
0.0136445
0.0423835
0.0739231
0.105641
0.130755
0.141642
0.135584
0.118077
0.09834
0.079139
0.0530228
0.0135444
-0.0309877
-0.063634
-0.0794784
-0.087154
-0.0885719
-0.0787797
-0.0667865
-0.0636199
-0.0549579
-0.0291792
-0.00972112
-0.0135877
-0.0241947
-0.0289834
-0.0278542
-0.0228214
-0.0204724
-0.0154163
-0.0109187
-0.0197815
-0.0224832
-0.0151928
-0.0142729
-0.0115
-0.00696863
-0.00578176
-0.00534083
-0.00296366
-0.00446217
-0.00432821
-0.00488921
-0.00753351
-0.00734415
-0.0107142
-0.0105449
-0.0129645
-0.0129534
-0.0137954
-0.0137954
-0.0129534
-0.0129645
-0.0105449
-0.0107141
-0.00734393
-0.00753334
-0.00488883
-0.0043278
-0.00446176
-0.00296301
-0.00534041
-0.00578125
-0.00696807
-0.0114999
-0.0142729
-0.0151929
-0.0224843
-0.019782
-0.0109177
-0.0154158
-0.0204725
-0.0228217
-0.027855
-0.0289844
-0.0241949
-0.0135862
-0.0097183
-0.0291781
-0.0549593
-0.0636211
-0.0667866
-0.0787802
-0.0885728
-0.0871547
-0.0794795
-0.0636359
-0.0309893
0.0135443
0.0530238
0.0791399
0.0983405
0.118078
0.135585
0.141643
0.130757
0.105642
0.0739231
0.0423832
0.0136443
0.0175753
0.0533543
0.0892409
0.120605
0.139758
0.140887
0.125668
0.103261
0.0818204
0.0593455
0.0271883
-0.0145905
-0.0518254
-0.0732128
-0.0841168
-0.0914222
-0.0882371
-0.0725765
-0.0592657
-0.0505796
-0.0318858
-0.0123069
-0.0135877
-0.0255607
-0.0307472
-0.0294796
-0.021304
-0.0154314
-0.0165369
-0.0127653
-0.0155037
-0.0203831
-0.0099411
-0.00734814
-0.0103649
-0.00696017
-0.00791023
-0.011186
-0.0124688
-0.0148189
-0.0206608
-0.0205128
-0.0264277
-0.0263097
-0.0288732
-0.0295398
-0.0294471
-0.0302377
-0.0295399
-0.0298625
-0.0298626
-0.02954
-0.030238
-0.0294474
-0.0295403
-0.0288737
-0.0263102
-0.0264283
-0.0205131
-0.0206613
-0.0148189
-0.0124686
-0.0111859
-0.00790965
-0.0069596
-0.0103647
-0.00734737
-0.00994068
-0.0203841
-0.0155039
-0.0127647
-0.0165366
-0.0154308
-0.0213041
-0.0294807
-0.0307484
-0.0255611
-0.0135862
-0.0123044
-0.031885
-0.0505802
-0.0592662
-0.0725773
-0.0882384
-0.0914231
-0.0841172
-0.0732138
-0.0518271
-0.0145914
0.0271887
0.0593462
0.0818208
0.103261
0.125669
0.140889
0.13976
0.120606
0.0892414
0.0533543
0.0175752
0.0216711
0.0643445
0.103288
0.132006
0.143071
0.134025
0.111346
0.0862638
0.0639226
0.038342
0.00284825
-0.036053
-0.0643041
-0.0798361
-0.0913586
-0.0959367
-0.0822631
-0.0588925
-0.0444185
-0.0339984
-0.019071
-0.0145312
-0.0241947
-0.0307472
-0.0300662
-0.0218063
-0.0105873
-0.0130213
-0.0157328
-0.0116136
-0.0169716
-0.0133401
-0.00804636
-0.0166486
-0.0157358
-0.0153769
-0.0200487
-0.0218548
-0.0206972
-0.0230286
-0.0202056
-0.0158072
-0.0153221
-0.00645921
-0.00711548
0.000851178
0.000518332
0.00520191
0.00523432
0.00669043
0.00669039
0.0052345
0.00520203
0.000518505
0.000851384
-0.00711553
-0.00645913
-0.0153225
-0.0158076
-0.0202062
-0.0230295
-0.0206977
-0.0218555
-0.0200493
-0.0153768
-0.0157359
-0.0166488
-0.0080455
-0.01334
-0.016972
-0.0116134
-0.0157329
-0.0130206
-0.0105861
-0.0218065
-0.0300674
-0.0307484
-0.0241949
-0.0145298
-0.0190694
-0.0339977
-0.044418
-0.0588926
-0.0822647
-0.0959386
-0.0913593
-0.0798365
-0.0643051
-0.0360542
0.00284796
0.0383424
0.0639228
0.086264
0.111347
0.134027
0.143073
0.132007
0.103289
0.0643448
0.0216711
0.0256118
0.0744257
0.11472
0.138588
0.140223
0.121725
0.094009
0.0684618
0.0460925
0.0185146
-0.0172904
-0.051106
-0.0734996
-0.0887404
-0.0996671
-0.0933432
-0.065703
-0.0403218
-0.0322523
-0.0265555
-0.0184323
-0.0211368
-0.0289834
-0.0294796
-0.0218063
-0.008424
-0.00763727
-0.0194885
-0.0170847
-0.0156531
-0.0204705
-0.0135797
-0.0166307
-0.018487
-0.0123741
-0.0146764
-0.0129539
-0.00813551
-0.00297059
-0.00145621
0.00753302
0.00556475
0.00977458
0.00885271
0.00626834
0.00712938
0.00191474
0.00312246
-0.000487794
1.15671e-05
1.16591e-05
-0.000487731
0.00312278
0.00191498
0.00712999
0.00626889
0.00885353
0.00977552
0.00556544
0.00753403
-0.00145587
-0.00297032
-0.00813544
-0.0129544
-0.0146768
-0.0123741
-0.0184876
-0.0166309
-0.0135794
-0.0204709
-0.0156532
-0.0170852
-0.0194891
-0.00763594
-0.00842249
-0.0218065
-0.0294807
-0.0289844
-0.0211367
-0.0184314
-0.0265548
-0.0322512
-0.0403206
-0.0657036
-0.0933455
-0.0996689
-0.0887408
-0.0735
-0.0511068
-0.017291
0.0185147
0.0460926
0.0684617
0.0940092
0.121726
0.140225
0.13859
0.114721
0.0744265
0.025612
0.0290314
0.0826019
0.122271
0.139447
0.131292
0.105157
0.0753526
0.0514896
0.0299961
0.0015477
-0.0331518
-0.0631361
-0.0839036
-0.0992446
-0.101953
-0.078725
-0.0435157
-0.0276891
-0.0296062
-0.0253982
-0.019523
-0.0244515
-0.0278542
-0.021304
-0.0105873
-0.00763727
-0.0214488
-0.0267754
-0.0153175
-0.0159059
-0.0142012
-0.00747596
-0.0110593
-0.0073614
-0.00702557
-0.00709268
-0.0038788
-0.00264177
-0.00535776
-0.00890295
-0.0112326
-0.0220517
-0.0205684
-0.0318722
-0.0293534
-0.0359874
-0.0345722
-0.0368822
-0.036488
-0.0368762
-0.0368761
-0.0364883
-0.0368825
-0.0345727
-0.035988
-0.0293539
-0.0318729
-0.0205686
-0.022052
-0.0112323
-0.00890248
-0.00535727
-0.00264094
-0.00387822
-0.00709256
-0.00702539
-0.00736123
-0.0110593
-0.00747549
-0.0142011
-0.0159058
-0.0153175
-0.026777
-0.0214496
-0.00763594
-0.0105861
-0.0213041
-0.027855
-0.0244518
-0.0195227
-0.0253981
-0.0296057
-0.0276872
-0.0435145
-0.0787265
-0.101956
-0.0992461
-0.083904
-0.0631365
-0.0331522
0.00154766
0.029996
0.0514892
0.0753524
0.105158
0.131294
0.139449
0.122273
0.082603
0.0290318
0.0315537
0.0879115
0.124889
0.134133
0.116933
0.0859436
0.0572736
0.0369203
0.0166721
-0.0126189
-0.0469318
-0.0755611
-0.0957522
-0.105807
-0.0930327
-0.0562482
-0.0265319
-0.0257912
-0.0307463
-0.0224283
-0.019005
-0.0248888
-0.0228214
-0.0154314
-0.0130213
-0.0194885
-0.0267754
-0.0150246
-0.00361998
-0.00982367
-0.00850791
-0.00880798
-0.0142275
-0.012915
-0.0133474
-0.0127246
-0.0161722
-0.0178808
-0.0232514
-0.0216766
-0.0227422
-0.0196371
-0.0132572
-0.0123194
-0.00216674
-0.00323958
0.00548458
0.00415214
0.00879436
0.00826272
0.00826278
0.00879445
0.00415225
0.00548477
-0.0032396
-0.00216667
-0.0123198
-0.0132576
-0.0196378
-0.0227431
-0.0216774
-0.0232522
-0.0178812
-0.0161723
-0.0127244
-0.0133473
-0.0129151
-0.0142277
-0.00880782
-0.00850772
-0.00982318
-0.0036186
-0.0150246
-0.026777
-0.0194891
-0.0130206
-0.0154308
-0.0228217