/*--------------------------------*- C++ -*----------------------------------*\
  =========                 |
  \\      /  F ield         | OpenFOAM: The Open Source CFD Toolbox
   \\    /   O peration     | Website:  https://openfoam.org
    \\  /    A nd           | Version:  dev
     \\/     M anipulation  |
\*---------------------------------------------------------------------------*/
FoamFile
{
    format      ascii;
    class       volScalarField;
    location    "20";
    object      h_0;
}
// * * * * * * * * * * * * * * * * * * * * * * * * * * * * * * * * * * * * * //

dimensions      [0 1 0 0 0 0 0];

internalField   nonuniform List<scalar> 
10000
(
8.93874e-11
4.57433e-10
1.74205e-09
6.25905e-09
2.14539e-08
7.01309e-08
2.18414e-07
6.4739e-07
1.82441e-06
4.88342e-06
1.24043e-05
2.9875e-05
6.81751e-05
0.00014733
0.000301406
0.000583674
0.0010701
0.00185838
0.00305959
0.00478105
0.00710155
0.0100438
0.0135507
0.0174721
0.0215659
0.0255148
0.0289544
0.0315091
0.0328323
0.0326453
0.0307718
0.0271635
0.0219116
0.0152413
0.00748753
-0.000943073
-0.00961856
-0.0181278
-0.026119
-0.033326
-0.0395794
-0.0448052
-0.0490124
-0.0522741
-0.054706
-0.0564459
-0.0576344
-0.0584
-0.0588483
-0.0590533
-0.0590534
-0.0588485
-0.0584003
-0.0576347
-0.0564464
-0.0547066
-0.0522746
-0.049013
-0.0448058
-0.0395799
-0.0333264
-0.0261193
-0.0181278
-0.0096184
-0.000942709
0.00748809
0.015242
0.0219125
0.0271644
0.0307727
0.0326461
0.032833
0.0315096
0.0289547
0.025515
0.021566
0.017472
0.0135506
0.0100436
0.00710134
0.00478084
0.00305942
0.00185825
0.00107001
0.000583611
0.000301367
0.000147307
6.81629e-05
2.98688e-05
1.24014e-05
4.88211e-06
1.82386e-06
6.47171e-07
2.18332e-07
7.01016e-08
2.1444e-08
6.2559e-09
1.7411e-09
4.57159e-10
8.93302e-11
4.57433e-10
2.31084e-09
8.6471e-09
3.0491e-08
1.02506e-07
3.28457e-07
1.0021e-06
2.90795e-06
8.01784e-06
2.09844e-05
5.2084e-05
0.000122499
0.000272827
0.000575118
0.00114716
0.00216517
0.00386808
0.00654514
0.0105003
0.0159934
0.0231659
0.0319702
0.0421194
0.0530746
0.0640725
0.0741902
0.0824342
0.0878431
0.0895922
0.0870906
0.0800607
0.0685856
0.0531138
0.0344154
0.013494
-0.00853068
-0.0305481
-0.0515686
-0.0708055
-0.0877197
-0.102027
-0.113673
-0.122793
-0.129653
-0.134599
-0.138005
-0.140232
-0.141601
-0.142365
-0.142703
-0.142703
-0.142366
-0.141601
-0.140233
-0.138006
-0.134601
-0.129655
-0.122795
-0.113675
-0.102028
-0.0877209
-0.0708064
-0.0515691
-0.0305481
-0.00853014
0.0134951
0.0344169
0.0531157
0.0685877
0.0800629
0.0870927
0.0895941
0.0878447
0.0824353
0.0741909
0.0640729
0.0530746
0.0421191
0.0319697
0.0231653
0.0159928
0.0104998
0.00654474
0.00386778
0.00216497
0.00114703
0.00057504
0.000272783
0.000122476
5.20728e-05
2.09792e-05
8.01562e-06
2.90704e-06
1.00175e-06
3.2833e-07
1.02463e-07
3.04767e-08
8.64265e-09
2.30955e-09
4.57159e-10
1.74205e-09
8.6471e-09
3.15835e-08
1.08502e-07
3.54978e-07
1.1057e-06
3.27549e-06
9.21791e-06
2.46168e-05
6.2319e-05
0.000149412
0.000338973
0.000727218
0.00147463
0.00282572
0.00511751
0.00876348
0.0142026
0.0218118
0.0317961
0.044084
0.0582584
0.0735471
0.0888757
0.10297
0.11449
0.122167
0.124944
0.122099
0.113342
0.098874
0.0793815
0.0559652
0.0300057
0.00299301
-0.023647
-0.0486978
-0.0712474
-0.0907267
-0.106897
-0.119799
-0.129687
-0.136946
-0.142032
-0.145411
-0.14752
-0.14874
-0.149382
-0.149681
-0.149792
-0.149792
-0.149681
-0.149383
-0.148741
-0.147521
-0.145412
-0.142033
-0.136947
-0.129688
-0.119801
-0.106899
-0.0907282
-0.0712486
-0.0486985
-0.0236472
0.00299337
0.0300067
0.0559668
0.0793836
0.0988764
0.113345
0.122102
0.124947
0.122169
0.114491
0.102971
0.0888761
0.0735471
0.058258
0.0440834
0.0317954
0.021811
0.0142019
0.00876296
0.00511712
0.00282546
0.00147446
0.000727118
0.000338919
0.000149384
6.23056e-05
2.46107e-05
9.21534e-06
3.27446e-06
1.10531e-06
3.5484e-07
1.08455e-07
3.15686e-08
8.64265e-09
1.74109e-09
6.25905e-09
3.0491e-08
1.08502e-07
3.6235e-07
1.15082e-06
3.47509e-06
9.96544e-06
2.71061e-05
6.9849e-05
0.000170325
0.000392611
0.0008547
0.00175594
0.00340278
0.00621874
0.01072
0.0174413
0.026812
0.0390064
0.0538117
0.0705638
0.0881768
0.105261
0.120294
0.131803
0.138529
0.139556
0.134423
0.123194
0.106488
0.0854242
0.0614945
0.0363576
0.0116134
-0.0113972
-0.0317245
-0.0488558
-0.0626821
-0.07341
-0.0814499
-0.087306
-0.0914875
-0.0944481
-0.0965542
-0.0980764
-0.099197
-0.100027
-0.100625
-0.101018
-0.101214
-0.101214
-0.101018
-0.100625
-0.100027
-0.0991971
-0.0980765
-0.0965544
-0.0944484
-0.091488
-0.0873067
-0.0814509
-0.0734112
-0.0626834
-0.0488571
-0.0317256
-0.011398
0.011613
0.0363577
0.0614953
0.0854256
0.106489
0.123196
0.134425
0.139558
0.138531
0.131805
0.120295
0.105262
0.088177
0.0705636
0.0538111
0.0390056
0.0268112
0.0174405
0.0107194
0.00621829
0.00340247
0.00175574
0.000854584
0.000392548
0.000170293
6.98339e-05
2.70995e-05
9.96266e-06
3.474e-06
1.15042e-06
3.62209e-07
1.08455e-07
3.04767e-08
6.25589e-09
2.14539e-08
1.02506e-07
3.54978e-07
1.15082e-06
3.54264e-06
1.03527e-05
2.86833e-05
7.52431e-05
0.000186632
0.000437146
0.000965764
0.00201029
0.0039393
0.00726271
0.012595
0.02055
0.031569
0.045721
0.0625464
0.0810166
0.0996423
0.116701
0.130506
0.13964
0.143106
0.14042
0.131645
0.11742
0.0989234
0.0777733
0.0558099
0.0348142
0.016225
0.000936674
-0.0107692
-0.0191588
-0.0248838
-0.02878
-0.0316809
-0.0342802
-0.0370568
-0.0402574
-0.0439219
-0.0479316
-0.0520668
-0.0560594
-0.0596368
-0.0625536
-0.0646125
-0.0656768
-0.0656767
-0.0646122
-0.0625532
-0.0596362
-0.0560586
-0.0520658
-0.0479306
-0.0439208
-0.0402564
-0.0370559
-0.0342796
-0.0316806
-0.02878
-0.0248842
-0.0191597
-0.0107703
0.000935503
0.0162239
0.0348135
0.0558097
0.0777737
0.0989244
0.117421
0.131647
0.140422
0.143108
0.139641
0.130508
0.116702
0.0996427
0.0810165
0.0625459
0.0457203
0.0315682
0.0205492
0.0125943
0.0072622
0.00393895
0.00201007
0.000965634
0.000437077
0.000186597
7.52269e-05
2.86762e-05
1.03498e-05
3.54153e-06
1.15042e-06
3.5484e-07
1.02463e-07
2.1444e-08
7.01309e-08
3.28457e-07
1.1057e-06
3.47509e-06
1.03527e-05
2.92276e-05
7.80853e-05
0.000197116
0.000469457
0.0010533
0.00222324
0.00440925
0.00820819
0.0143327
0.0234683
0.0360432
0.0519687
0.0704602
0.0900442
0.108788
0.124678
0.136007
0.141623
0.141019
0.1343
0.122117
0.105632
0.086457
0.0665134
0.0477596
0.0318292
0.0197059
0.0115578
0.00678802
0.00426823
0.0026601
0.000722383
-0.00247069
-0.00742805
-0.0142466
-0.0226888
-0.032294
-0.0424908
-0.0526907
-0.0623524
-0.0710186
-0.0783288
-0.0840172
-0.0879018
-0.0898704
-0.0898704
-0.0879016
-0.084017
-0.0783283
-0.071018
-0.0623516
-0.0526897
-0.0424895
-0.0322925
-0.0226871
-0.0142448
-0.00742629
-0.00246911
0.000723603
0.00266082
0.00426838
0.00678761
0.0115569
0.0197048
0.0318281
0.0477588
0.0665131
0.0864572
0.105633
0.122119
0.134301
0.141021
0.141625
0.136008
0.124679
0.108788
0.0900444
0.0704599
0.051968
0.0360424
0.0234675
0.0143319
0.00820762
0.00440886
0.00222299
0.00105316
0.000469383
0.00019708
7.80685e-05
2.92204e-05
1.03498e-05
3.474e-06
1.10531e-06
3.2833e-07
7.01016e-08
2.18414e-07
1.0021e-06
3.27549e-06
9.96544e-06
2.86833e-05
7.80853e-05
0.000200737
0.000486473
0.00110945
0.00237704
0.00477684
0.00899049
0.0158284
0.0260454
0.0400428
0.0575407
0.0773776
0.0975899
0.11581
0.129838
0.138143
0.140077
0.135786
0.12598
0.111736
0.0944398
0.0757831
0.0576643
0.0418852
0.0297149
0.0215243
0.016688
0.0138112
0.0111724
0.00719812
0.000812224
-0.00841535
-0.0203083
-0.0342474
-0.04938
-0.0648126
-0.0797501
-0.0935741
-0.105865
-0.116385
-0.125041
-0.131838
-0.136836
-0.140112
-0.141731
-0.141731
-0.140112
-0.136836
-0.131838
-0.125041
-0.116385
-0.105865
-0.0935742
-0.0797499
-0.064812
-0.0493791
-0.034246
-0.0203066
-0.0084135
0.000814065
0.00719972
0.0111735
0.0138118
0.016688
0.0215237
0.0297141
0.0418844
0.0576637
0.0757829
0.09444
0.111737
0.125982
0.135788
0.140079
0.138145
0.129839
0.115811
0.0975905
0.0773775
0.0575402
0.0400419
0.0260445
0.0158276
0.00898989
0.00477643
0.00237678
0.0011093
0.000486396
0.0002007
7.80685e-05
2.86762e-05
9.96266e-06
3.27446e-06
1.00175e-06
2.18331e-07
6.4739e-07
2.90795e-06
9.21791e-06
2.71061e-05
7.52431e-05
0.000197116
0.000486473
0.00112881
0.00245773
0.00501114
0.00954977
0.0169802
0.0281288
0.0433702
0.0622212
0.0831178
0.103589
0.120871
0.13271
0.13797
0.136708
0.129796
0.118387
0.103618
0.0866419
0.0688344
0.0518313
0.0372137
0.0259442
0.0179118
0.0119083
0.00608032
-0.00138832
-0.0116921
-0.0251268
-0.0411462
-0.0586456
-0.0763218
-0.0929823
-0.107742
-0.120096
-0.129895
-0.137269
-0.142527
-0.146068
-0.148305
-0.149615
-0.150318
-0.150653
-0.150781
-0.150781
-0.150653
-0.150319
-0.149616
-0.148305
-0.146069
-0.142529
-0.13727
-0.129896
-0.120097
-0.107743
-0.0929831
-0.076322
-0.0586453
-0.0411453
-0.0251254
-0.0116905
-0.00138683
0.00608146
0.011909
0.0179119
0.0259439
0.0372132
0.0518309
0.0688343
0.0866421
0.103618
0.118388
0.129797
0.13671
0.137971
0.132712
0.120872
0.10359
0.0831179
0.0622208
0.0433694
0.0281279
0.0169794
0.00954915
0.00501071
0.00245747
0.00112866
0.000486396
0.00019708
7.52269e-05
2.70995e-05
9.21534e-06
2.90704e-06
6.47171e-07
1.82441e-06
8.01784e-06
2.46168e-05
6.9849e-05
0.000186632
0.000469457
0.00110945
0.00245773
0.00509163
0.00984131
0.0177064
0.0295924
0.0458632
0.0658467
0.0875803
0.10809
0.124257
0.133899
0.136456
0.132834
0.124569
0.112944
0.0986577
0.0821687
0.0642918
0.046465
0.0303546
0.0170145
0.00621646
-0.00351178
-0.0141369
-0.0271498
-0.0429333
-0.0607043
-0.0789111
-0.0958096
-0.109961
-0.12051
-0.127238
-0.130447
-0.130774
-0.128996
-0.125888
-0.12212
-0.118226
-0.114591
-0.111475
-0.10904
-0.107379
-0.106539
-0.106539
-0.107379
-0.10904
-0.111475
-0.114591
-0.118226
-0.122121
-0.125889
-0.128998
-0.130775
-0.130449
-0.12724
-0.120512
-0.109962
-0.0958109
-0.0789118
-0.0607042
-0.0429326
-0.0271488
-0.0141358
-0.00351102
0.00621683
0.0170145
0.0303546
0.046465
0.0642921
0.0821691
0.0986582
0.112944
0.12457
0.132835
0.136458
0.133901
0.124258
0.108091
0.0875806
0.0658464
0.0458624
0.0295915
0.0177056
0.00984067
0.0050912
0.00245747
0.0011093
0.000469383
0.000186597
6.98339e-05
2.46107e-05
8.01562e-06
1.82386e-06
4.88342e-06
2.09844e-05
6.2319e-05
0.000170325
0.000437146
0.0010533
0.00237704
0.00501114
0.00984131
0.0179545
0.0303471
0.0474051
0.0683114
0.0907402
0.111233
0.126342
0.13403
0.134429
0.129349
0.120842
0.109911
0.0963174
0.0794999
0.0597713
0.0388065
0.018982
0.00199783
-0.0121767
-0.0251846
-0.0390762
-0.0549375
-0.0722707
-0.0893324
-0.103992
-0.114556
-0.120235
-0.121184
-0.118255
-0.112639
-0.105543
-0.097987
-0.0907069
-0.0841556
-0.0785534
-0.0739571
-0.0703268
-0.0675771
-0.0656136
-0.064354
-0.0637394
-0.0637393
-0.064354
-0.0656135
-0.0675769
-0.0703266
-0.073957
-0.0785532
-0.0841556
-0.090707
-0.0979874
-0.105544
-0.11264
-0.118257
-0.121186
-0.120237
-0.114558
-0.103994
-0.0893336
-0.0722712
-0.0549374
-0.0390757
-0.0251842
-0.0121765
0.00199779
0.0189821
0.0388069
0.059772
0.0795008
0.0963182
0.109911
0.120842
0.12935
0.13443
0.134031
0.126344
0.111235
0.0907406
0.0683111
0.0474043
0.0303462
0.0179536
0.00984067
0.00501071
0.00237678
0.00105316
0.000437077
0.000170293
6.23056e-05
2.09792e-05
4.88211e-06
1.24043e-05
5.2084e-05
0.000149412
0.000392611
0.000965764
0.00222324
0.00477684
0.00954977
0.0177064
0.0303471
0.0479266
0.0695564
0.0926166
0.113196
0.127508
0.133652
0.132482
0.1267
0.118694
0.108805
0.0954571
0.0769772
0.0535462
0.0277656
0.00341024
-0.0167866
-0.0327016
-0.0465001
-0.0606852
-0.0761304
-0.0915522
-0.104493
-0.112767
-0.115392
-0.112751
-0.106194
-0.0974213
-0.0879702
-0.0789426
-0.0709482
-0.064194
-0.0586308
-0.0540881
-0.0503742
-0.0473302
-0.0448495
-0.0428758
-0.0413888
-0.0403897
-0.0398869
-0.0398869
-0.0403897
-0.0413888
-0.0428758
-0.0448495
-0.0473302
-0.0503741
-0.054088
-0.0586306
-0.0641939
-0.0709481
-0.0789427
-0.0879706
-0.0974221
-0.106196
-0.112753
-0.115394
-0.112769
-0.104495
-0.0915533
-0.0761309
-0.0606853
-0.0465002
-0.032702
-0.0167871
0.00340996
0.027766
0.0535473
0.0769786
0.0954583
0.108806
0.118694
0.1267
0.132483
0.133654
0.12751
0.113197
0.0926171
0.0695561
0.0479259
0.0303462
0.0177056
0.00954915
0.00477643
0.00222299
0.000965634
0.000392548
0.000149384
5.20728e-05
1.24014e-05
2.9875e-05
0.000122499
0.000338973
0.0008547
0.00201029
0.00440925
0.00899049
0.0169802
0.0295924
0.0474051
0.0695564
0.093238
0.114133
0.12807
0.133182
0.130961
0.124959
0.117784
0.108855
0.0950321
0.0736458
0.0452974
0.0142158
-0.0139851
-0.0355695
-0.0507264
-0.0628002
-0.075228
-0.0887578
-0.101178
-0.109325
-0.11128
-0.107164
-0.0986282
-0.0878648
-0.0767533
-0.0664316
-0.057316
-0.0493403
-0.0422296
-0.0357127
-0.0296254
-0.0239252
-0.0186654
-0.0139444
-0.00986912
-0.00652864
-0.00398507
-0.00227516
-0.0014168
-0.00141678
-0.0022751
-0.00398497
-0.00652853
-0.00986902
-0.0139443
-0.0186654
-0.0239253
-0.0296255
-0.0357128
-0.0422296
-0.0493403
-0.057316
-0.0664317
-0.0767535
-0.0878655
-0.0986294
-0.107166
-0.111282
-0.109327
-0.10118
-0.0887586
-0.0752283
-0.0628006
-0.0507272
-0.0355707
-0.013986
0.0142158
0.0452985
0.0736476
0.0950337
0.108856
0.117785
0.12496
0.130962
0.133184
0.128072
0.114134
0.0932385
0.0695561
0.0474043
0.0295915
0.0169794
0.00898989
0.00440886
0.00201007
0.000854584
0.000338919
0.000122476
2.98688e-05
6.81751e-05
0.000272827
0.000727218
0.00175594
0.0039393
0.00820819
0.0158284
0.0281288
0.0458632
0.0683114
0.0926166
0.114133
0.128234
0.132885
0.130021
0.123981
0.117609
0.109361
0.0944778
0.0694871
0.0359327
0.000150849
-0.0303932
-0.0514135
-0.0640259
-0.0732607
-0.0836512
-0.0955212
-0.105234
-0.108718
-0.104601
-0.094495
-0.0812782
-0.0674919
-0.0546123
-0.0430327
-0.0325347
-0.022794
-0.0136422
-0.00513202
0.0025296
0.00911617
0.0144712
0.0185579
0.0214662
0.0233739
0.024513
0.0251174
0.0253943
0.0254932
0.0254933
0.0253946
0.0251179
0.0245137
0.0233747
0.0214672
0.0185589
0.0144722
0.00911709
0.00253039
-0.0051314
-0.0136417
-0.0227937
-0.0325344
-0.0430325
-0.0546123
-0.0674922
-0.081279
-0.0944964
-0.104603
-0.10872
-0.105236
-0.0955223
-0.0836516
-0.0732611
-0.064027
-0.0514152
-0.0303948
0.000150305
0.0359336
0.0694891
0.0944799
0.109362
0.117609
0.123982
0.130022
0.132886
0.128235
0.114134
0.0926171
0.0683111
0.0458624
0.0281279
0.0158276
0.00820762
0.00393895
0.00175574
0.000727118
0.000272783
6.81628e-05
0.00014733
0.000575118
0.00147463
0.00340278
0.00726271
0.0143327
0.0260454
0.0433702
0.0658467
0.0907402
0.113196
0.12807
0.132885
0.129706
0.12356
0.117707
0.109866
0.0937458
0.0651726
0.0269125
-0.0124314
-0.0439009
-0.0633049
-0.073023
-0.0796654
-0.0885388
-0.0990801
-0.105802
-0.103761
-0.0927477
-0.0765465
-0.0593439
-0.0435425
-0.0298629
-0.0180908
-0.00784955
0.000861189
0.00771343
0.0123218
0.0144438
0.014124
0.0117077
0.00772283
0.00279933
-0.00245688
-0.00752063
-0.011978
-0.015537
-0.0180011
-0.0192593
-0.0192593
-0.018001
-0.0155368
-0.0119777
-0.00752017
-0.0024562
0.00280027
0.00772404
0.0117092
0.0141256
0.0144455
0.0123235
0.00771499
0.000862518
-0.00784846
-0.0180899
-0.0298622
-0.0435421
-0.0593439
-0.0765473
-0.0927495
-0.103763
-0.105805
-0.0990815
-0.0885393
-0.0796657
-0.073024
-0.0633069
-0.043903
-0.0124325
0.0269131
0.0651746
0.0937482
0.109868
0.117708
0.12356
0.129707
0.132886
0.128072
0.113197
0.0907406
0.0658464
0.0433694
0.0260445
0.0143319
0.0072622
0.00340247
0.00147446
0.00057504
0.000147307
0.000301406
0.00114716
0.00282572
0.00621874
0.012595
0.0234683
0.0400428
0.0622212
0.0875803
0.111233
0.127508
0.133182
0.130021
0.12356
0.117774
0.110154
0.0931004
0.0616239
0.0195949
-0.0222305
-0.0538628
-0.0717495
-0.079348
-0.0839968
-0.0912132
-0.0995931
-0.102092
-0.0934284
-0.0754007
-0.0546359
-0.0365096
-0.0224477
-0.01187
-0.00418259
0.000819669
0.00281998
0.00139088
-0.00339945
-0.010951
-0.0203102
-0.0303471
-0.0400642
-0.0487442
-0.0559533
-0.0615895
-0.0657234
-0.0685847
-0.0704264
-0.0714992
-0.0719858
-0.071986
-0.0714996
-0.070427
-0.0685855
-0.0657243
-0.0615905
-0.0559543
-0.048745
-0.0400647
-0.0303472
-0.0203098
-0.01095
-0.00339805
0.00139257
0.00282178
0.000821397
-0.00418098
-0.0118685
-0.0224463
-0.0365084
-0.0546356
-0.0754017
-0.0934307
-0.102095
-0.0995949
-0.0912139
-0.0839972
-0.0793491
-0.0717516
-0.0538652
-0.022232
0.0195952
0.0616259
0.0931029
0.110155
0.117775
0.12356
0.130022
0.133184
0.12751
0.111235
0.0875806
0.0622208
0.0400419
0.0234675
0.0125943
0.00621829
0.00282546
0.00114703
0.000301367
0.000583674
0.00216517
0.00511751
0.01072
0.02055
0.0360432
0.0575407
0.0831178
0.10809
0.126342
0.133652
0.130961
0.123981
0.117707
0.110154
0.0928431
0.0596311
0.0148992
-0.0287384
-0.0604902
-0.0776814
-0.0842971
-0.0870934
-0.0913648
-0.0959762
-0.0936096
-0.0792222
-0.0568157
-0.0357291
-0.0217781
-0.0141334
-0.0100424
-0.00882042
-0.0107308
-0.0158306
-0.0238716
-0.0336703
-0.0434734
-0.0517682
-0.0575008
-0.0602001
-0.0600869
-0.0576787
-0.0537297
-0.0490177
-0.0441849
-0.0398001
-0.0362141
-0.03371
-0.0324187
-0.0324187
-0.0337101
-0.0362144
-0.0398006
-0.0441856
-0.0490187
-0.0537309
-0.0576802
-0.0600887
-0.060202
-0.0575027
-0.0517697
-0.0434744
-0.0336707
-0.0238712
-0.0158297
-0.0107296
-0.00881902
-0.0100409
-0.0141317
-0.0217761
-0.0357275
-0.0568155
-0.0792237
-0.093612
-0.0959781
-0.0913657
-0.0870941
-0.0842983
-0.0776834
-0.0604927
-0.0287402
0.0148992
0.0596331
0.0928457
0.110155
0.117708
0.123982
0.130962
0.133654
0.126344
0.108091
0.0831179
0.0575402
0.0360424
0.0205492
0.0107194
0.00511712
0.00216497
0.00058361
0.0010701
0.00386808
0.00876348
0.0174413
0.031569
0.0519687
0.0773776
0.103589
0.124257
0.13403
0.132482
0.124959
0.117609
0.109866
0.0931004
0.0596311
0.0132898
-0.0319395
-0.0642437
-0.0816539
-0.0882331
-0.0889538
-0.0886269
-0.0883718
-0.0825731
-0.0661731
-0.0439623
-0.0267705
-0.0199037
-0.019501
-0.0201925
-0.0218892
-0.0262799
-0.0326226
-0.0394106
-0.0448458
-0.0469133
-0.0448772
-0.0391902
-0.0307843
-0.0210236
-0.0112222
-0.00217123
0.00544472
0.0115378
0.0160789
0.0192943
0.0214208
0.0226848
0.0232735
0.0232736
0.0226851
0.0214213
0.019295
0.0160797
0.0115386
0.00544544
-0.00217072
-0.0112221
-0.0210239
-0.0307852
-0.0391916
-0.044879
-0.0469152
-0.0448474
-0.0394116
-0.032623
-0.0262797
-0.0218887
-0.0201918
-0.0195
-0.0199018
-0.0267683
-0.0439611
-0.0661738
-0.0825748
-0.0883731
-0.0886278
-0.0889548
-0.0882346
-0.0816561
-0.0642462
-0.0319414
0.0132898
0.0596331
0.0931029
0.109868
0.117609
0.12496
0.132483
0.134031
0.124258
0.10359
0.0773775
0.051968
0.0315682
0.0174405
0.00876296
0.00386778
0.00107001
0.00185838
0.00654514
0.0142026
0.026812
0.045721
0.0704602
0.0975899
0.120871
0.133899
0.134429
0.1267
0.117784
0.109361
0.0937458
0.0616239
0.0148992
-0.0319395
-0.0654579
-0.0837103
-0.0908684
-0.0896608
-0.0839761
-0.0789551
-0.0728218
-0.0592335
-0.0406163
-0.0277804
-0.0257103
-0.0284414
-0.0287285
-0.0277297
-0.0298847
-0.0334921
-0.0348919
-0.0330667
-0.0272914
-0.0183138
-0.008484
0.00040377
0.00724667
0.0111987
0.0125654
0.0118151
0.00950197
0.00653805
0.00323576
0.000287501
-0.00221026
-0.00391362
-0.00481252
-0.00481248
-0.0039135
-0.00221004
0.000287864
0.0032363
0.00653882
0.00950299
0.0118164
0.0125669
0.0112003
0.0072481
0.000404832
-0.0084835
-0.018314
-0.0272923
-0.033068
-0.0348931
-0.033493
-0.029885
-0.0277296
-0.0287287
-0.0284414
-0.0257092
-0.0277786
-0.0406151
-0.0592336
-0.0728225
-0.0789556
-0.0839767
-0.0896621
-0.0908702
-0.0837125
-0.0654604
-0.0319414
0.0148992
0.0616259
0.0937482
0.109362
0.117785
0.1267
0.13443
0.133901
0.120872
0.0975905
0.0704599
0.0457203
0.0268112
0.0142019
0.00654474
0.00185825
0.00305959
0.0105003
0.0218118
0.0390064
0.0625464
0.0900442
0.11581
0.13271
0.136456
0.129349
0.118694
0.108855
0.0944778
0.0651726
0.0195949
-0.0287384
-0.0642437
-0.0837103
-0.0918025
-0.0897424
-0.0796513
-0.070746
-0.0669004
-0.0594578
-0.0446427
-0.0323546
-0.0295971
-0.0307767
-0.0281138
-0.0233472
-0.0235729
-0.0266106
-0.0250912
-0.0196206
-0.0127612
-0.00556381
-0.000929618
-0.000135937
-0.00234117
-0.00688881
-0.0128335
-0.0185431
-0.0239929
-0.0282666
-0.0315691
-0.0339263
-0.0353998
-0.0363914
-0.0368616
-0.0371106
-0.0371107
-0.0368618
-0.0363917
-0.0354002
-0.0339268
-0.0315696
-0.0282671
-0.0239932
-0.0185431
-0.0128332
-0.00688806
-0.00234003
-0.000134556
-0.000928207
-0.0055628
-0.0127609
-0.0196209
-0.025092
-0.0266113
-0.0235728
-0.0233469
-0.0281141
-0.0307771
-0.0295966
-0.0323535
-0.0446423
-0.0594583
-0.0669006
-0.0707456
-0.0796516
-0.0897438
-0.0918043
-0.0837125
-0.0642462
-0.0287402
0.0195952
0.0651746
0.0944799
0.108856
0.118694
0.12935
0.136458
0.132712
0.115811
0.0900444
0.0625459
0.0390056
0.021811
0.0104998
0.00305942
0.00478105
0.0159934
0.0317961
0.0538117
0.0810166
0.108788
0.129838
0.13797
0.132834
0.120842
0.108805
0.0950321
0.0694871
0.0269125
-0.0222305
-0.0604902
-0.0816539
-0.0908684
-0.0897424
-0.0779002
-0.0660891
-0.0645972
-0.0637088
-0.0508435
-0.0342324
-0.0266658
-0.0254906
-0.0225592
-0.0180124
-0.0189549
-0.0242564
-0.0227927
-0.015572
-0.0111109
-0.00906649
-0.00985399
-0.014373
-0.0197053
-0.0241207
-0.0277385
-0.0293394
-0.0292917
-0.0286118
-0.0265766
-0.0249667
-0.0227934
-0.0212985
-0.0198596
-0.019017
-0.0185312
-0.0185312
-0.0190171
-0.0198597
-0.0212987
-0.0227937
-0.0249671
-0.0265771
-0.0286125
-0.0292925
-0.0293402
-0.0277393
-0.0241212
-0.0197054
-0.0143726
-0.00985309
-0.0090655
-0.01111
-0.0155716
-0.0227934
-0.0242572
-0.0189545
-0.0180117
-0.0225591
-0.0254905
-0.026665
-0.0342317
-0.0508442
-0.06371
-0.064597
-0.0660881
-0.0779004
-0.0897438
-0.0908702
-0.0816561
-0.0604927
-0.022232
0.0269131
0.0694891
0.0950337
0.108806
0.120842
0.132835
0.137971
0.129839
0.108788
0.0810165
0.0538111
0.0317954
0.0159928
0.00478084
0.00710155
0.0231659
0.044084
0.0705638
0.0996423
0.124678
0.138143
0.136708
0.124569
0.109911
0.0954571
0.0736458
0.0359327
-0.0124314
-0.0538628
-0.0776814
-0.0882331
-0.0896608
-0.0796513
-0.0660891
-0.0641509
-0.0673789
-0.055307
-0.0322689
-0.0192364
-0.018463
-0.0195319
-0.0189803
-0.0206624
-0.0261001
-0.0248571
-0.015118
-0.0119341
-0.0148991
-0.0171219
-0.0210925
-0.0241636
-0.0239797
-0.0225595
-0.0206342
-0.0170826
-0.0148581
-0.0122246
-0.0102101
-0.00903021
-0.00752897
-0.00717776
-0.00629863
-0.00623465
-0.00595111
-0.00595109
-0.0062346
-0.00629853
-0.00717765
-0.00752882
-0.00903009
-0.01021
-0.0122246
-0.0148582
-0.0170828
-0.0206347
-0.0225601
-0.0239804
-0.0241645
-0.0210929
-0.0171218
-0.0148988
-0.0119331
-0.0151173
-0.024858
-0.026101
-0.0206623
-0.0189799
-0.0195315
-0.0184621
-0.0192348
-0.0322681
-0.0553084
-0.0673806
-0.0641507
-0.0660881
-0.0796516
-0.0896621
-0.0882346
-0.0776834
-0.0538652
-0.0124325
0.0359336
0.0736476
0.0954583
0.109911
0.12457
0.13671
0.138145
0.124679
0.0996427
0.0705636
0.0440834
0.0231653
0.00710133
0.0100438
0.0319702
0.0582584
0.0881768
0.116701
0.136007
0.140077
0.129796
0.112944
0.0963174
0.0769772
0.0452974
0.000150849
-0.0439009
-0.0717495
-0.0842971
-0.0889538
-0.0839761
-0.070746
-0.0645972
-0.0673789
-0.0568064
-0.0296506
-0.0124584
-0.0144412
-0.0210269
-0.0243816
-0.0248571
-0.0257781
-0.0243441
-0.0143916
-0.010828
-0.0186486
-0.0208186
-0.0204245
-0.0211319
-0.0180007
-0.0141808
-0.0121513
-0.00935715
-0.00690129
-0.00651558
-0.00400307
-0.00432797
-0.00272798
-0.0027908
-0.00215968
-0.00201289
-0.00188032
-0.0017949
-0.00179484
-0.00188026
-0.00201273
-0.00215951
-0.00279055
-0.0027277
-0.00432769
-0.00400268
-0.00651532
-0.00690094
-0.00935691
-0.0121513
-0.0141808
-0.0180011
-0.0211326
-0.020425
-0.0208193
-0.0186489
-0.0108268
-0.0143908
-0.0243447
-0.0257788
-0.0248576
-0.0243819
-0.0210268
-0.0144398
-0.0124559
-0.0296496
-0.0568081
-0.0673806
-0.064597
-0.0707456
-0.0839767
-0.0889548
-0.0842983
-0.0717516
-0.043903
0.000150305
0.0452985
0.0769786
0.0963182
0.112944
0.129797
0.140079
0.136008
0.116702
0.088177
0.058258
0.0319697
0.0100436
0.0135507
0.0421194
0.0735471
0.105261
0.130506
0.141623
0.135786
0.118387
0.0986577
0.0794999
0.0535462
0.0142158
-0.0303932
-0.0633049
-0.079348
-0.0870934
-0.0886269
-0.0789551
-0.0669004
-0.0637088
-0.055307
-0.0296506
-0.00985533
-0.0134124
-0.024036
-0.0289278
-0.0279091
-0.0229161
-0.0205521
-0.0155369
-0.0108759
-0.0196391
-0.0225855
-0.015334
-0.0143555
-0.0116396
-0.0070667
-0.00581416
-0.00536641
-0.0029527
-0.00436987
-0.00425323
-0.00470952
-0.00736553
-0.0071137
-0.0104719
-0.010285
-0.0126862
-0.0126759
-0.0135099
-0.0135099
-0.0126759
-0.0126862
-0.010285
-0.0104718
-0.00711348
-0.00736536
-0.00470914
-0.00425281
-0.00436946
-0.00295205
-0.005366
-0.00581365
-0.00706615
-0.0116395
-0.0143555
-0.015334
-0.0225866
-0.0196397
-0.0108749
-0.0155364
-0.0205522
-0.0229164
-0.0279099
-0.0289287
-0.0240363
-0.0134109
-0.00985251
-0.0296496
-0.0553084
-0.06371
-0.0669006
-0.0789556
-0.0886278
-0.0870941
-0.0793491
-0.0633069
-0.0303948
0.0142158
0.0535473
0.0795008
0.0986582
0.118388
0.135788
0.141625
0.130508
0.105262
0.0735471
0.0421191
0.0135506
0.0174721
0.0530746
0.0888757
0.120294
0.13964
0.141019
0.12598
0.103618
0.0821687
0.0597713
0.0277656
-0.0139851
-0.0514135
-0.073023
-0.0839968
-0.0913648
-0.0883718
-0.0728218
-0.0594578
-0.0508435
-0.0322689
-0.0124584
-0.0134124
-0.0253955
-0.0307138
-0.0295611
-0.021474
-0.0154934
-0.0165683
-0.0128121
-0.0154197
-0.0204783
-0.0101321
-0.00731253
-0.0103535
-0.0069382
-0.00778214
-0.0110323
-0.0123248
-0.0145918
-0.0204744
-0.0203519
-0.0262529
-0.0262665
-0.0287921
-0.0295999
-0.0294825
-0.0303646
-0.0296587
-0.0300114
-0.0300115
-0.0296588
-0.0303649
-0.0294828
-0.0296004
-0.0287926
-0.026267
-0.0262536
-0.0203521
-0.0204748
-0.0145918
-0.0123246
-0.0110322
-0.00778155
-0.00693764
-0.0103534
-0.00731175
-0.0101317
-0.0204793
-0.0154199
-0.0128116
-0.016568
-0.0154928
-0.0214741
-0.0295622
-0.030715
-0.0253959
-0.0134109
-0.0124559
-0.0322681
-0.0508442
-0.0594583
-0.0728225
-0.0883731
-0.0913657
-0.0839972
-0.073024
-0.0514152
-0.013986
0.027766
0.059772
0.0821691
0.103618
0.125982
0.141021
0.139641
0.120295
0.0888761
0.0530746
0.017472
0.0215659
0.0640725
0.10297
0.131803
0.143106
0.1343
0.111736
0.0866419
0.0642918
0.0388065
0.00341024
-0.0355695
-0.0640259
-0.0796654
-0.0912132
-0.0959762
-0.0825731
-0.0592335
-0.0446427
-0.0342324
-0.0192364
-0.0144412
-0.024036
-0.0307138
-0.0301443
-0.0220226
-0.0107166
-0.0129573
-0.0157675
-0.0116012
-0.0169112
-0.0134403
-0.00793853
-0.016498
-0.0157314
-0.0152797
-0.0199749
-0.0218716
-0.0207728
-0.0231346
-0.020512
-0.0160679
-0.0157397
-0.00686122
-0.00753626
0.000399115
0.000127378
0.00477206
0.00485869
0.00629881
0.00629877
0.00485886
0.00477218
0.000127544
0.000399307
-0.00753632
-0.00686116
-0.0157401
-0.0160683
-0.0205126
-0.0231355
-0.0207733
-0.0218723
-0.0199754
-0.0152796
-0.0157315
-0.0164982
-0.00793765
-0.0134402
-0.0169117
-0.011601
-0.0157676
-0.0129566
-0.0107153
-0.0220228
-0.0301455
-0.030715
-0.0240363
-0.0144398
-0.0192348
-0.0342317
-0.0446423
-0.0592336
-0.0825748
-0.0959781
-0.0912139
-0.0796657
-0.064027
-0.0355707
0.00340996
0.0388069
0.0642921
0.0866421
0.111737
0.134301
0.143108
0.131805
0.102971
0.0640729
0.021566
0.0255148
0.0741902
0.11449
0.138529
0.14042
0.122117
0.0944398
0.0688344
0.046465
0.018982
-0.0167866
-0.0507264
-0.0732607
-0.0885388
-0.0995931
-0.0936096
-0.0661731
-0.0406163
-0.0323546
-0.0266658
-0.018463
-0.0210269
-0.0289278
-0.0295611
-0.0220226
-0.00860319
-0.00750148
-0.0193486
-0.0171226
-0.0155606
-0.0204818
-0.0136408
-0.0165674
-0.0186242
-0.012479
-0.0147559
-0.0131421
-0.00836667
-0.00315083
-0.00164858
0.00739572
0.00562518
0.00978832
0.00915639
0.00649566
0.00757623
0.00231717
0.00363376
1.01969e-05
0.000539059
0.000539149
1.02663e-05
0.00363408
0.00231742
0.00757685
0.00649622
0.00915722
0.00978926
0.00562587
0.00739672
-0.00164825
-0.00315057
-0.00836661
-0.0131426
-0.0147563
-0.0124789
-0.0186248
-0.0165676
-0.0136405
-0.0204823
-0.0155607
-0.0171231
-0.0193492
-0.00750013
-0.00860169
-0.0220228
-0.0295622
-0.0289287
-0.0210268
-0.0184621
-0.026665
-0.0323535
-0.0406151
-0.0661738
-0.093612
-0.0995949
-0.0885393
-0.0732611
-0.0507272
-0.0167871
0.0189821
0.046465
0.0688343
0.09444
0.122119
0.140422
0.138531
0.114491
0.0741909
0.025515
0.0289544
0.0824342
0.122167
0.139556
0.131645
0.105632
0.0757831
0.0518313
0.0303546
0.00199783
-0.0327016
-0.0628002
-0.0836512
-0.0990801
-0.102092
-0.0792222
-0.0439623
-0.0277804
-0.0295971
-0.0254906
-0.0195319
-0.0243816
-0.0279091
-0.021474
-0.0107166
-0.00750148
-0.0211949
-0.0268485
-0.01546
-0.0159329
-0.0143767
-0.00754528
-0.011097
-0.00743942
-0.0069881
-0.00711769
-0.00384189
-0.00252632
-0.00509755
-0.00866479
-0.0108267
-0.0217338
-0.0202582
-0.0315813
-0.0292407
-0.0358242
-0.0346165
-0.036869
-0.0366004
-0.0369656
-0.0369656
-0.0366008
-0.0368693
-0.0346171
-0.0358248
-0.0292413
-0.031582
-0.0202584
-0.0217342
-0.0108265
-0.00866431
-0.00509705
-0.00252549
-0.00384132
-0.00711758
-0.00698792
-0.00743925
-0.0110971
-0.00754482
-0.0143767
-0.0159329
-0.01546
-0.0268501
-0.0211956
-0.00750013
-0.0107153
-0.0214741
-0.0279099
-0.0243819
-0.0195315
-0.0254905
-0.0295966
-0.0277786
-0.0439611
-0.0792237
-0.102095
-0.0990815
-0.0836516
-0.0628006
-0.032702
0.00199779
0.0303546
0.0518309
0.0757829
0.105633
0.131647
0.139558
0.122169
0.0824353
0.0289547
0.0315091
0.0878431
0.124944
0.134423
0.11742
0.086457
0.0576643
0.0372137
0.0170145
-0.0121767
-0.0465001
-0.075228
-0.0955212
-0.105802
-0.0934284
-0.0568157
-0.0267705
-0.0257103
-0.0307767
-0.0225592
-0.0189803
-0.0248571
-0.0229161
-0.0154934
-0.0129573
-0.0193486
-0.0268485
-0.0153361
-0.00369586
-0.00977006
-0.00851025
-0.00867015
-0.0141326
-0.012855
-0.0133038
-0.012655
-0.0160724
-0.0178206
-0.0232399
-0.0218431
-0.0229192
-0.0200756
-0.0136183
-0.0128737
-0.00263608
-0.00377066
0.00499564
0.00367911
0.0083314
0.00781576
0.00781582
0.00833149
0.00367921
0.00499582
-0.0037707
-0.00263603
-0.0128741
-0.0136187
-0.0200762
-0.0229202
-0.0218439
-0.0232407
-0.0178209
-0.0160725
-0.0126548
-0.0133037
-0.0128551
-0.0141328
-0.00866998
-0.00851005
-0.00976955
-0.00369449
-0.0153361
-0.0268501
-0.0193492
-0.0129566
-0.0154928
-0.0229164
-0.0248576
-0.0189799