/*--------------------------------*- C++ -*----------------------------------*\
| =========                 |                                                 |
| \\      /  F ield         | OpenFOAM: The Open Source CFD Toolbox           |
|  \\    /   O peration     | Version:  v2106                                 |
|   \\  /    A nd           | Website:  www.openfoam.com                      |
|    \\/     M anipulation  |                                                 |
\*---------------------------------------------------------------------------*/
FoamFile
{
    version     2.0;
    format      ascii;
    arch        "LSB;label=32;scalar=64";
    class       volVectorField;
    location    "0.25";
    object      U;
}
// * * * * * * * * * * * * * * * * * * * * * * * * * * * * * * * * * * * * * //

dimensions      [0 1 -1 0 0 0 0];

internalField   nonuniform List<vector> 
400
(
(149.106 149.106 0)
(7.9849 157.646 0)
(8.22 166.619 0)
(8.26903 175.878 0)
(8.0521 185.185 0)
(7.48603 194.192 0)
(6.50248 202.436 0)
(5.0737 209.366 0)
(3.2384 214.407 0)
(1.11442 217.069 0)
(-1.11442 217.069 0)
(-3.2384 214.407 0)
(-5.0737 209.366 0)
(-6.50248 202.436 0)
(-7.48603 194.192 0)
(-8.0521 185.185 0)
(-8.26903 175.878 0)
(-8.22 166.619 0)
(-7.9849 157.646 0)
(-149.106 149.106 0)
(157.646 7.9849 0)
(9.52865 9.52865 0)
(10.0115 11.3739 0)
(10.2962 13.5414 0)
(10.2615 16.0178 0)
(9.76559 18.7282 0)
(8.67204 21.5072 0)
(6.89672 24.0844 0)
(4.46454 26.1084 0)
(1.54798 27.2313 0)
(-1.54798 27.2313 0)
(-4.46454 26.1084 0)
(-6.89672 24.0844 0)
(-8.67204 21.5072 0)
(-9.76559 18.7282 0)
(-10.2615 16.0178 0)
(-10.2962 13.5414 0)
(-10.0115 11.3739 0)
(-9.52865 9.52865 0)
(-157.646 7.9849 0)
(166.619 8.22 0)
(11.3739 10.0115 0)
(12.2328 12.2328 0)
(12.913 14.9534 0)
(13.2388 18.2103 0)
(12.9754 21.9604 0)
(11.8586 26.0132 0)
(9.67486 29.9668 0)
(6.38534 33.2091 0)
(2.23732 35.0618 0)
(-2.23732 35.0618 0)
(-6.38534 33.2091 0)
(-9.67486 29.9668 0)
(-11.8586 26.0132 0)
(-12.9754 21.9604 0)
(-13.2388 18.2103 0)
(-12.913 14.9534 0)
(-12.2328 12.2328 0)
(-11.3739 10.0115 0)
(-166.619 8.22 0)
(175.878 8.26903 0)
(13.5414 10.2962 0)
(14.9534 12.913 0)
(16.2737 16.2737 0)
(17.2685 20.5248 0)
(17.5685 25.7359 0)
(16.6785 31.7648 0)
(14.0926 38.0668 0)
(9.55947 43.5651 0)
(3.40061 46.848 0)
(-3.40061 46.848 0)
(-9.55947 43.5651 0)
(-14.0926 38.0668 0)
(-16.6785 31.7648 0)
(-17.5685 25.7359 0)
(-17.2685 20.5248 0)
(-16.2737 16.2737 0)
(-14.9534 12.913 0)
(-13.5414 10.2962 0)
(-175.878 8.26903 0)
(185.185 8.0521 0)
(16.0178 10.2615 0)
(18.2103 13.2388 0)
(20.5248 17.2685 0)
(22.701 22.701 0)
(24.2154 29.8875 0)
(24.1896 38.9685 0)
(21.4752 49.4151 0)
(15.1665 59.4089 0)
(5.5202 65.8049 0)
(-5.5202 65.8049 0)
(-15.1665 59.4089 0)
(-21.4752 49.4151 0)
(-24.1896 38.9685 0)
(-24.2154 29.8875 0)
(-22.701 22.701 0)
(-20.5248 17.2685 0)
(-18.2103 13.2388 0)
(-16.0178 10.2615 0)
(-185.185 8.0521 0)
(194.192 7.48603 0)
(18.7282 9.76559 0)
(21.9604 12.9754 0)
(25.7359 17.5685 0)
(29.8875 24.2154 0)
(33.8359 33.8359 0)
(36.2062 47.4372 0)
(34.5331 65.3212 0)
(25.9493 85.0492 0)
(9.79665 99.2596 0)
(-9.79665 99.2596 0)
(-25.9493 85.0492 0)
(-34.5331 65.3212 0)
(-36.2062 47.4372 0)
(-33.8359 33.8359 0)
(-29.8875 24.2154 0)
(-25.7359 17.5685 0)
(-21.9604 12.9754 0)
(-18.7282 9.76559 0)
(-194.192 7.48603 0)
(202.436 6.50248 0)
(21.5072 8.67204 0)
(26.0132 11.8586 0)
(31.7648 16.6785 0)
(38.9685 24.1896 0)
(47.4372 36.2062 0)
(55.6749 55.6749 0)
(59.0872 86.3993 0)
(49.1049 128.917 0)
(19.7306 167.14 0)
(-19.7306 167.14 0)
(-49.1049 128.917 0)
(-59.0872 86.3993 0)
(-55.6749 55.6749 0)
(-47.4372 36.2062 0)
(-38.9685 24.1896 0)
(-31.7648 16.6785 0)
(-26.0132 11.8586 0)
(-21.5072 8.67204 0)
(-202.436 6.50248 0)
(209.366 5.0737 0)
(24.0844 6.89672 0)
(29.9668 9.67486 0)
(38.0668 14.0926 0)
(49.4151 21.4752 0)
(65.3212 34.5331 0)
(86.3993 59.0872 0)
(107.775 107.775 0)
(106.69 203.639 0)
(48.02 340.985 0)
(-48.02 340.985 0)
(-106.69 203.639 0)
(-107.775 107.775 0)
(-86.3993 59.0872 0)
(-65.3212 34.5331 0)
(-49.4151 21.4752 0)
(-38.0668 14.0926 0)
(-29.9668 9.67486 0)
(-24.0844 6.89672 0)
(-209.366 5.0737 0)
(214.407 3.2384 0)
(26.1084 4.46454 0)
(33.2091 6.38534 0)
(43.5651 9.55947 0)
(59.4089 15.1665 0)
(85.0492 25.9493 0)
(128.917 49.1049 0)
(203.639 106.69 0)
(282.315 282.315 0)
(157.076 996.759 0)
(-157.076 996.759 0)
(-282.315 282.315 0)
(-203.639 106.69 0)
(-128.917 49.1049 0)
(-85.0492 25.9493 0)
(-59.4089 15.1665 0)
(-43.5651 9.55947 0)
(-33.2091 6.38534 0)
(-26.1084 4.46454 0)
(-214.407 3.2384 0)
(217.069 1.11442 0)
(27.2313 1.54798 0)
(35.0618 2.23732 0)
(46.848 3.40061 0)
(65.8049 5.5202 0)
(99.2596 9.79665 0)
(167.14 19.7306 0)
(340.985 48.02 0)
(996.759 157.076 0)
(762.465 762.465 0)
(-762.465 762.465 0)
(-996.759 157.076 0)
(-340.985 48.02 0)
(-167.14 19.7306 0)
(-99.2596 9.79665 0)
(-65.8049 5.5202 0)
(-46.848 3.40061 0)
(-35.0618 2.23732 0)
(-27.2313 1.54798 0)
(-217.069 1.11442 0)
(217.069 -1.11442 0)
(27.2313 -1.54798 0)
(35.0618 -2.23732 0)
(46.848 -3.40061 0)
(65.8049 -5.5202 0)
(99.2596 -9.79665 0)
(167.14 -19.7306 0)
(340.985 -48.02 0)
(996.759 -157.076 0)
(762.465 -762.465 0)
(-762.465 -762.465 0)
(-996.759 -157.076 0)
(-340.985 -48.02 0)
(-167.14 -19.7306 0)
(-99.2596 -9.79665 0)
(-65.8049 -5.5202 0)
(-46.848 -3.40061 0)
(-35.0618 -2.23732 0)
(-27.2313 -1.54798 0)
(-217.069 -1.11442 0)
(214.407 -3.2384 0)
(26.1084 -4.46454 0)
(33.2091 -6.38534 0)
(43.5651 -9.55947 0)
(59.4089 -15.1665 0)
(85.0492 -25.9493 0)
(128.917 -49.1049 0)
(203.639 -106.69 0)
(282.315 -282.315 0)
(157.076 -996.759 0)
(-157.076 -996.759 0)
(-282.315 -282.315 0)
(-203.639 -106.69 0)
(-128.917 -49.1049 0)
(-85.0492 -25.9493 0)
(-59.4089 -15.1665 0)
(-43.5651 -9.55947 0)
(-33.2091 -6.38534 0)
(-26.1084 -4.46454 0)
(-214.407 -3.2384 0)
(209.366 -5.0737 0)
(24.0844 -6.89672 0)
(29.9668 -9.67486 0)
(38.0668 -14.0926 0)
(49.4151 -21.4752 0)
(65.3212 -34.5331 0)
(86.3993 -59.0872 0)
(107.775 -107.775 0)
(106.69 -203.639 0)
(48.02 -340.985 0)
(-48.02 -340.985 0)
(-106.69 -203.639 0)
(-107.775 -107.775 0)
(-86.3993 -59.0872 0)
(-65.3212 -34.5331 0)
(-49.4151 -21.4752 0)
(-38.0668 -14.0926 0)
(-29.9668 -9.67486 0)
(-24.0844 -6.89672 0)
(-209.366 -5.0737 0)
(202.436 -6.50248 0)
(21.5072 -8.67204 0)
(26.0132 -11.8586 0)
(31.7648 -16.6785 0)
(38.9685 -24.1896 0)
(47.4372 -36.2062 0)
(55.6749 -55.6749 0)
(59.0872 -86.3993 0)
(49.1049 -128.917 0)
(19.7306 -167.14 0)
(-19.7306 -167.14 0)
(-49.1049 -128.917 0)
(-59.0872 -86.3993 0)
(-55.6749 -55.6749 0)
(-47.4372 -36.2062 0)
(-38.9685 -24.1896 0)
(-31.7648 -16.6785 0)
(-26.0132 -11.8586 0)
(-21.5072 -8.67204 0)
(-202.436 -6.50248 0)
(194.192 -7.48603 0)
(18.7282 -9.76559 0)
(21.9604 -12.9754 0)
(25.7359 -17.5685 0)
(29.8875 -24.2154 0)
(33.8359 -33.8359 0)
(36.2062 -47.4372 0)
(34.5331 -65.3212 0)
(25.9493 -85.0492 0)
(9.79665 -99.2596 0)
(-9.79665 -99.2596 0)
(-25.9493 -85.0492 0)
(-34.5331 -65.3212 0)
(-36.2062 -47.4372 0)
(-33.8359 -33.8359 0)
(-29.8875 -24.2154 0)
(-25.7359 -17.5685 0)
(-21.9604 -12.9754 0)
(-18.7282 -9.76559 0)
(-194.192 -7.48603 0)
(185.185 -8.0521 0)
(16.0178 -10.2615 0)
(18.2103 -13.2388 0)
(20.5248 -17.2685 0)
(22.701 -22.701 0)
(24.2154 -29.8875 0)
(24.1896 -38.9685 0)
(21.4752 -49.4151 0)
(15.1665 -59.4089 0)
(5.5202 -65.8049 0)
(-5.5202 -65.8049 0)
(-15.1665 -59.4089 0)
(-21.4752 -49.4151 0)
(-24.1896 -38.9685 0)
(-24.2154 -29.8875 0)
(-22.701 -22.701 0)
(-20.5248 -17.2685 0)
(-18.2103 -13.2388 0)
(-16.0178 -10.2615 0)
(-185.185 -8.0521 0)
(175.878 -8.26903 0)
(13.5414 -10.2962 0)
(14.9534 -12.913 0)
(16.2737 -16.2737 0)
(17.2685 -20.5248 0)
(17.5685 -25.7359 0)
(16.6785 -31.7648 0)
(14.0926 -38.0668 0)
(9.55947 -43.5651 0)
(3.40061 -46.848 0)
(-3.40061 -46.848 0)
(-9.55947 -43.5651 0)
(-14.0926 -38.0668 0)
(-16.6785 -31.7648 0)
(-17.5685 -25.7359 0)
(-17.2685 -20.5248 0)
(-16.2737 -16.2737 0)
(-14.9534 -12.913 0)
(-13.5414 -10.2962 0)
(-175.878 -8.26903 0)
(166.619 -8.22 0)
(11.3739 -10.0115 0)
(12.2328 -12.2328 0)
(12.913 -14.9534 0)
(13.2388 -18.2103 0)
(12.9754 -21.9604 0)
(11.8586 -26.0132 0)
(9.67486 -29.9668 0)
(6.38534 -33.2091 0)
(2.23732 -35.0618 0)
(-2.23732 -35.0618 0)
(-6.38534 -33.2091 0)
(-9.67486 -29.9668 0)
(-11.8586 -26.0132 0)
(-12.9754 -21.9604 0)
(-13.2388 -18.2103 0)
(-12.913 -14.9534 0)
(-12.2328 -12.2328 0)
(-11.3739 -10.0115 0)
(-166.619 -8.22 0)
(157.646 -7.9849 0)
(9.52865 -9.52865 0)
(10.0115 -11.3739 0)
(10.2962 -13.5414 0)
(10.2615 -16.0178 0)
(9.76559 -18.7282 0)
(8.67204 -21.5072 0)
(6.89672 -24.0844 0)
(4.46454 -26.1084 0)
(1.54798 -27.2313 0)
(-1.54798 -27.2313 0)
(-4.46454 -26.1084 0)
(-6.89672 -24.0844 0)
(-8.67204 -21.5072 0)
(-9.76559 -18.7282 0)
(-10.2615 -16.0178 0)
(-10.2962 -13.5414 0)
(-10.0115 -11.3739 0)
(-9.52865 -9.52865 0)
(-157.646 -7.9849 0)
(149.106 -149.106 0)
(7.9849 -157.646 0)
(8.22 -166.619 0)
(8.26903 -175.878 0)
(8.0521 -185.185 0)
(7.48603 -194.192 0)
(6.50248 -202.436 0)
(5.0737 -209.366 0)
(3.2384 -214.407 0)
(1.11442 -217.069 0)
(-1.11442 -217.069 0)
(-3.2384 -214.407 0)
(-5.0737 -209.366 0)
(-6.50248 -202.436 0)
(-7.48603 -194.192 0)
(-8.0521 -185.185 0)
(-8.26903 -175.878 0)
(-8.22 -166.619 0)
(-7.9849 -157.646 0)
(-149.106 -149.106 0)
)
;

boundaryField
{
    movingWall
    {
        type            fixedValue;
        value           uniform (1 0 0);
    }
    fixedWalls
    {
        type            fixedValue;
        value           uniform (0 0 0);
    }
    frontAndBack
    {
        type            empty;
    }
}


// ************************************************************************* //
