/*--------------------------------*- C++ -*----------------------------------*\
  =========                 |
  \\      /  F ield         | OpenFOAM: The Open Source CFD Toolbox
   \\    /   O peration     | Website:  https://openfoam.org
    \\  /    A nd           | Version:  dev
     \\/     M anipulation  |
\*---------------------------------------------------------------------------*/
FoamFile
{
    format      ascii;
    class       volScalarField;
    location    "10";
    object      h;
}
// * * * * * * * * * * * * * * * * * * * * * * * * * * * * * * * * * * * * * //

dimensions      [0 1 0 0 0 0 0];

internalField   nonuniform List<scalar> 
10000
(
1.31164e-52
2.76443e-51
5.36283e-50
1.00507e-48
1.81864e-47
3.17478e-46
5.34262e-45
8.65985e-44
1.35085e-42
2.02608e-41
2.91908e-40
4.03597e-39
5.3495e-38
6.79004e-37
8.24385e-36
9.56242e-35
1.05837e-33
1.11627e-32
1.12035e-31
1.06845e-30
9.66713e-30
8.28466e-29
6.71331e-28
5.13443e-27
3.69919e-26
2.50553e-25
1.592e-24
9.468e-24
5.25803e-23
2.71998e-22
1.30728e-21
5.82212e-21
2.39621e-20
9.0889e-20
3.16857e-19
1.01263e-18
2.95957e-18
7.89389e-18
1.91841e-17
4.2439e-17
8.54496e-17
1.56736e-16
2.62455e-16
4.02585e-16
5.68439e-16
7.43475e-16
9.07599e-16
1.04285e-15
1.13728e-15
1.1853e-15
1.18529e-15
1.13724e-15
1.04279e-15
9.07527e-16
7.43393e-16
5.68357e-16
4.02511e-16
2.62396e-16
1.56693e-16
8.54212e-17
4.24222e-17
1.91752e-17
7.88962e-18
2.95772e-18
1.0119e-18
3.16598e-19
9.08046e-20
2.3937e-20
5.81528e-21
1.30556e-21
2.71601e-22
5.24954e-23
9.45115e-24
1.58888e-24
2.50016e-25
3.69055e-26
5.12138e-27
6.6948e-28
8.25994e-29
9.636e-30
1.06474e-30
1.11618e-31
1.11181e-32
1.05385e-33
9.51877e-35
8.20374e-36
6.75487e-37
5.32006e-38
4.0124e-39
2.90102e-40
2.01282e-41
1.34151e-42
8.59665e-44
5.30152e-45
3.14906e-46
1.80315e-47
9.96078e-49
5.31247e-50
2.73721e-51
1.29813e-52
2.76443e-51
5.76684e-50
1.10651e-48
2.05071e-47
3.66873e-46
6.33076e-45
1.05288e-43
1.68627e-42
2.59847e-41
3.8491e-40
5.47568e-39
7.47349e-38
9.77603e-37
1.22428e-35
1.46615e-34
1.67701e-33
1.82978e-32
1.90191e-31
1.88062e-30
1.7664e-29
1.57354e-28
1.32725e-27
1.05819e-26
7.95998e-26
5.63853e-25
3.75354e-24
2.34321e-23
1.36868e-22
7.46267e-22
3.78901e-21
1.78688e-20
7.80675e-20
3.15141e-19
1.17232e-18
4.00846e-18
1.25669e-17
3.60449e-17
9.44107e-17
2.2552e-16
4.90972e-16
9.74366e-16
1.76484e-15
2.92433e-15
4.44874e-15
6.24379e-15
8.13441e-15
9.90874e-15
1.13755e-14
1.24039e-14
1.29289e-14
1.29288e-14
1.24036e-14
1.13749e-14
9.908e-15
8.13358e-15
6.24295e-15
4.44798e-15
2.92371e-15
1.76439e-15
9.74065e-16
4.90792e-16
2.25423e-16
9.43633e-17
3.60239e-17
1.25585e-17
4.0054e-18
1.17131e-18
3.14833e-19
7.79819e-20
1.78468e-20
3.78383e-21
7.45138e-22
1.36639e-22
2.33891e-23
3.74598e-24
5.62613e-25
7.94092e-26
1.05543e-26
1.32351e-27
1.56875e-28
1.76061e-29
1.87399e-30
1.89471e-31
1.82236e-32
1.66975e-33
1.45938e-34
1.21826e-35
9.7249e-37
7.43199e-38
5.44345e-39
3.82511e-40
2.58135e-41
1.67454e-42
1.04516e-43
6.28185e-45
3.63891e-46
2.03319e-47
1.09659e-48
5.71258e-50
2.73721e-51
5.36283e-50
1.10651e-48
2.09828e-47
3.84244e-46
6.79072e-45
1.15733e-43
1.90054e-42
3.00478e-41
4.56967e-40
6.67871e-39
9.37174e-38
1.26134e-36
1.62655e-35
2.00749e-34
2.36854e-33
2.66824e-32
2.86635e-31
2.93231e-30
2.85267e-29
2.63516e-28
2.30777e-27
1.9129e-26
1.49812e-25
1.10652e-24
7.69289e-24
5.02403e-23
3.07553e-22
1.76084e-21
9.40679e-21
4.67765e-20
2.15971e-19
9.23501e-19
3.64784e-18
1.32767e-17
4.44155e-17
1.36266e-16
3.8264e-16
9.81889e-16
2.30022e-15
4.91796e-15
9.60191e-15
1.71458e-14
2.80751e-14
4.23125e-14
5.89811e-14
7.64965e-14
9.29492e-14
1.06596e-13
1.16208e-13
1.21133e-13
1.21132e-13
1.16205e-13
1.06591e-13
9.29427e-14
7.64892e-14
5.89737e-14
4.23058e-14
2.80696e-14
1.71417e-14
9.59918e-15
4.9163e-15
2.29931e-15
9.81435e-16
3.82435e-16
1.36182e-16
4.43843e-17
1.3266e-17
3.64454e-18
9.2256e-19
2.15725e-19
4.67171e-20
9.39352e-21
1.7581e-21
3.07025e-22
5.01456e-23
7.67704e-24
1.10404e-24
1.49446e-25
1.90784e-26
2.30116e-27
2.62701e-28
2.84318e-29
2.92184e-30
2.85538e-31
2.65732e-32
2.35819e-33
1.99814e-34
1.61849e-35
1.2547e-36
9.3194e-38
6.6392e-39
4.54107e-40
2.98492e-41
1.88728e-42
1.14882e-43
6.73817e-45
3.81117e-46
2.08034e-47
1.09659e-48
5.31247e-50
1.00507e-48
2.05071e-47
3.84244e-46
6.95099e-45
1.21326e-43
2.04168e-42
3.30975e-41
5.16426e-40
7.74892e-39
1.1171e-37
1.54575e-36
2.05089e-35
2.60639e-34
3.16916e-33
3.68256e-32
4.08434e-31
4.31818e-30
4.34604e-29
4.15798e-28
3.77583e-27
3.24935e-26
2.6455e-25
2.03417e-24
1.47444e-23
1.00551e-22
6.43842e-22
3.86255e-21
2.16622e-20
1.13307e-19
5.51431e-19
2.49081e-18
1.04164e-17
4.02299e-17
1.43145e-16
4.68169e-16
1.40453e-15
3.85841e-15
9.69359e-15
2.22573e-14
4.67099e-14
8.96809e-14
1.57821e-13
2.55299e-13
3.81096e-13
5.27509e-13
6.8099e-13
8.25269e-13
9.45325e-13
1.03026e-12
1.07394e-12
1.07393e-12
1.03023e-12
9.45283e-13
8.25215e-13
6.8093e-13
5.27449e-13
3.81041e-13
2.55253e-13
1.57786e-13
8.96575e-14
4.66954e-14
2.22492e-14
9.68948e-15
3.85651e-15
1.40373e-15
4.67865e-16
1.43039e-16
4.01962e-17
1.04066e-17
2.48817e-18
5.5078e-19
1.13158e-19
2.16308e-20
3.85637e-21
6.42709e-22
1.00357e-22
1.47134e-23
2.02951e-24
2.63893e-25
3.2406e-26
3.76486e-27
4.14497e-28
4.33142e-29
4.30259e-30
4.06856e-31
3.66735e-32
3.1552e-33
2.59416e-34
2.04067e-35
1.53757e-36
1.11083e-37
7.70291e-39
5.13184e-40
3.28781e-41
2.02741e-42
1.20433e-43
6.89717e-45
3.81117e-46
2.03319e-47
9.96078e-49
1.81864e-47
3.66873e-46
6.79072e-45
1.21326e-43
2.09099e-42
3.47355e-41
5.55721e-40
8.55522e-39
1.26621e-37
1.80001e-36
2.45534e-35
3.21047e-34
4.01959e-33
4.81347e-32
5.50663e-31
6.01068e-30
6.2518e-29
6.18775e-28
5.81943e-27
5.19264e-26
4.38895e-25
3.50806e-24
2.64691e-23
1.88177e-22
1.25807e-21
7.89331e-21
4.63769e-20
2.54604e-19
1.303e-18
6.2017e-18
2.73848e-17
1.11915e-16
4.22283e-16
1.46776e-15
4.68942e-15
1.37464e-14
3.69167e-14
9.07426e-14
2.0409e-13
4.20197e-13
7.93008e-13
1.37485e-12
2.19656e-12
3.24693e-12
4.46209e-12
5.73269e-12
6.92786e-12
7.92537e-12
8.63396e-12
8.99969e-12
8.99962e-12
8.63375e-12
7.92505e-12
6.92744e-12
5.73222e-12
4.46162e-12
3.24649e-12
2.1962e-12
1.37458e-12
7.92819e-13
4.20078e-13
2.04022e-13
9.07074e-14
3.69001e-14
1.37392e-14
4.68663e-15
1.46676e-15
4.21957e-16
1.11818e-16
2.73581e-17
6.19492e-18
1.30142e-18
2.5426e-19
4.63078e-20
7.88036e-21
1.2558e-21
1.87807e-22
2.64124e-23
3.49989e-24
4.37787e-25
5.17847e-26
5.8023e-27
6.16815e-28
6.23054e-29
5.98878e-30
5.48517e-31
4.79345e-32
4.00177e-33
3.19533e-34
2.44304e-35
1.79045e-36
1.25909e-37
8.50429e-39
5.52227e-40
3.4505e-41
2.07637e-42
1.20433e-43
6.73817e-45
3.63891e-46
1.80315e-47
3.17478e-46
6.33076e-45
1.15733e-43
2.04168e-42
3.47355e-41
5.69468e-40
8.98904e-39
1.36499e-37
1.99214e-36
2.79174e-35
3.75287e-34
4.83431e-33
5.96093e-32
7.0276e-31
7.91211e-30
8.4962e-29
8.69019e-28
8.4548e-27
7.8129e-26
6.84682e-25
5.68109e-24
4.45555e-23
3.29704e-22
2.29765e-21
1.50497e-20
9.24616e-20
5.31684e-19
2.85521e-18
1.42862e-17
6.64463e-17
2.86594e-16
1.14361e-15
4.21219e-15
1.42893e-14
4.45595e-14
1.27523e-13
3.34534e-13
8.03946e-13
1.77003e-12
3.5733e-12
6.62569e-12
1.13127e-11
1.78454e-11
2.61152e-11
3.56237e-11
4.55395e-11
5.4871e-11
6.26809e-11
6.825e-11
7.11339e-11
7.11334e-11
6.82485e-11
6.26785e-11
5.48679e-11
4.55361e-11
3.56202e-11
2.6112e-11
1.78427e-11
1.13106e-11
6.62425e-12
3.57238e-12
1.76949e-12
8.03662e-13
3.34396e-13
1.27462e-13
4.45352e-14
1.42804e-14
4.20921e-15
1.1427e-15
2.86336e-16
6.63793e-17
1.42701e-17
2.85164e-18
5.30948e-19
9.23205e-20
1.50245e-20
2.29344e-21
3.29044e-22
4.44585e-23
5.66766e-24
6.8293e-25
7.79132e-26
8.42964e-27
8.6624e-28
8.46706e-29
7.88306e-30
7.00003e-31
5.93599e-32
4.81277e-33
3.7351e-34
2.77771e-35
1.98152e-36
1.35729e-37
8.93547e-39
5.65885e-40
3.4505e-41
2.02741e-42
1.14882e-43
6.28185e-45
3.14906e-46
5.34262e-45
1.05288e-43
1.90054e-42
3.30975e-41
5.55721e-40
8.98904e-39
1.39958e-37
2.09569e-36
3.01512e-35
4.164e-34
5.51455e-33
6.99591e-32
8.49251e-31
9.8533e-30
1.09133e-28
1.1524e-27
1.15862e-26
1.10755e-25
1.00514e-24
8.6467e-24
7.03932e-23
5.41402e-22
3.92676e-21
2.68073e-20
1.71916e-19
1.03354e-18
5.8123e-18
3.05083e-17
1.49123e-16
6.772e-16
2.85054e-15
1.10963e-14
3.98583e-14
1.31846e-13
4.00924e-13
1.11918e-12
2.86551e-12
6.72745e-12
1.44893e-11
2.86642e-11
5.21946e-11
8.77289e-11
1.36596e-10
1.97845e-10
2.67825e-10
3.40598e-10
4.09099e-10
4.66575e-10
5.07704e-10
5.29067e-10
5.29064e-10
5.07694e-10
4.66558e-10
4.09078e-10
3.40574e-10
2.67802e-10
1.97823e-10
1.36577e-10
8.77145e-11
5.21843e-11
2.86575e-11
1.44853e-11
6.72529e-12
2.86444e-12
1.1187e-12
4.00725e-13
1.31771e-13
3.98325e-14
1.10882e-14
2.84818e-15
6.7657e-16
1.48968e-16
3.0473e-17
5.80485e-18
1.03207e-18
1.71648e-19
2.67615e-20
3.91943e-21
5.40301e-22
7.02376e-23
8.62599e-24
1.00253e-24
1.10446e-25
1.15514e-26
1.14868e-27
1.08756e-28
9.8169e-30
8.45902e-31
6.96652e-32
5.48989e-33
4.14423e-34
2.99993e-35
2.08451e-36
1.39168e-37
8.93547e-39
5.52227e-40
3.28781e-41
1.88728e-42
1.04516e-43
5.30151e-45
8.65985e-44
1.68627e-42
3.00478e-41
5.16426e-40
8.55522e-39
1.36499e-37
2.09569e-36
3.09345e-35
4.38601e-34
5.96739e-33
7.78297e-32
9.72051e-31
1.16126e-29
1.32543e-28
1.44357e-27
1.49834e-26
1.48009e-25
1.38947e-24
1.23777e-23
1.04468e-22
8.3398e-22
6.28643e-21
4.46618e-20
2.98485e-19
1.87283e-18
1.10093e-17
6.05016e-17
3.10142e-16
1.47963e-15
6.55463e-15
2.69004e-14
1.02053e-13
3.5714e-13
1.15078e-12
3.40893e-12
9.27313e-12
2.31515e-11
5.30549e-11
1.11698e-10
2.16403e-10
3.86763e-10
6.39673e-10
9.82729e-10
1.40836e-09
1.89151e-09
2.39242e-09
2.86394e-09
3.26044e-09
3.54508e-09
3.69333e-09
3.69331e-09
3.54502e-09
3.26034e-09
2.86381e-09
2.39227e-09
1.89136e-09
1.40822e-09
9.82608e-10
6.39578e-10
3.86695e-10
2.16358e-10
1.1167e-10
5.30395e-11
2.31437e-11
9.2695e-12
3.40739e-12
1.15019e-12
3.56929e-13
1.01984e-13
2.688e-14
6.54904e-15
1.47821e-15
3.09811e-16
6.04299e-17
1.09948e-17
1.87012e-18
2.98012e-19
4.45843e-20
6.27452e-21
8.32261e-22
1.04234e-22
1.23478e-23
1.38583e-24
1.47592e-25
1.49381e-26
1.43889e-27
1.32083e-28
1.15695e-29
9.68204e-31
7.75018e-32
5.94066e-33
4.36516e-34
3.07786e-35
2.08451e-36
1.35729e-37
8.50429e-39
5.13184e-40
2.98492e-41
1.67454e-42
8.59664e-44
1.35085e-42
2.59847e-41
4.56967e-40
7.74892e-39
1.26621e-37
1.99214e-36
3.01512e-35
4.38601e-34
6.12639e-33
8.20881e-32
1.05402e-30
1.2955e-29
1.5225e-28
1.70878e-27
1.82931e-26
1.86547e-25
1.80964e-24
1.66751e-23
1.45734e-22
1.20607e-21
9.43577e-21
6.9664e-20
4.84468e-19
3.16745e-18
1.94297e-17
1.11591e-16
5.98762e-16
2.99489e-15
1.39325e-14
6.01473e-14
2.40424e-13
8.87955e-13
3.02417e-12
9.48177e-12
2.73318e-11
7.2375e-11
1.76019e-10
3.93379e-10
8.08921e-10
1.53375e-09
2.68894e-09
4.37407e-09
6.62785e-09
9.39513e-09
1.25152e-08
1.57395e-08
1.87737e-08
2.133e-08
2.31702e-08
2.41309e-08
2.41308e-08
2.31698e-08
2.13293e-08
1.87729e-08
1.57386e-08
1.25143e-08
9.39428e-09
6.62711e-09
4.37349e-09
2.68852e-09
1.53346e-09
8.08742e-10
3.93277e-10
1.75966e-10
7.23495e-11
2.73207e-11
9.47733e-12
3.02255e-12
8.87413e-13
2.40258e-13
6.01004e-14
1.39203e-14
2.99196e-15
5.98109e-16
1.11456e-16
1.94038e-17
3.16279e-18
4.83688e-19
6.95413e-20
9.41766e-21
1.20356e-21
1.45405e-22
1.66344e-23
1.80487e-24
1.86018e-25
1.82374e-26
1.70321e-27
1.51719e-28
1.29068e-29
1.04984e-30
8.17417e-32
6.09893e-33
4.36516e-34
2.99993e-35
1.98152e-36
1.25909e-37
7.70291e-39
4.54107e-40
2.58135e-41
1.34151e-42
2.02608e-41
3.8491e-40
6.67871e-39
1.1171e-37
1.80001e-36
2.79174e-35
4.164e-34
5.96739e-33
8.20881e-32
1.08284e-30
1.36828e-29
1.6544e-28
1.91187e-27
2.10913e-26
2.21833e-25
2.2215e-24
2.11522e-23
1.91213e-22
1.63856e-21
1.32887e-20
1.01821e-19
7.35797e-19
5.00525e-18
3.19886e-17
1.91682e-16
1.07465e-15
5.62488e-15
2.74252e-14
1.24282e-13
5.22297e-13
2.03114e-12
7.29448e-12
2.41485e-11
7.3583e-11
2.06155e-10
5.30792e-10
1.25616e-09
2.73509e-09
5.48861e-09
1.01769e-08
1.74912e-08
2.79697e-08
4.17827e-08
5.85616e-08
7.73474e-08
9.66916e-08
1.14884e-07
1.30233e-07
1.41308e-07
1.47103e-07
1.47102e-07
1.41306e-07
1.3023e-07
1.1488e-07
9.66867e-08
7.73424e-08
5.85569e-08
4.17786e-08
2.79664e-08
1.74887e-08
1.01752e-08
5.48753e-09
2.73446e-09
1.25582e-09
5.30625e-10
2.0608e-10
7.3552e-11
2.41368e-11
7.29044e-12
2.02986e-12
5.21925e-13
1.24182e-13
2.74006e-14
5.61925e-15
1.07346e-15
1.91446e-16
3.19452e-17
4.99779e-18
7.34595e-19
1.0164e-19
1.32629e-20
1.63511e-21
1.90778e-22
2.11002e-23
2.21561e-24
2.21201e-25
2.10269e-26
1.90562e-27
1.64862e-28
1.36318e-29
1.07854e-30
8.17417e-32
5.94066e-33
4.14423e-34
2.77771e-35
1.79045e-36
1.11083e-37
6.6392e-39
3.82511e-40
2.01282e-41
2.91908e-40
5.47568e-39
9.37174e-38
1.54575e-36
2.45534e-35
3.75287e-34
5.51455e-33
7.78297e-32
1.05402e-30
1.36828e-29
1.70084e-28
2.02221e-27
2.29697e-26
2.48954e-25
2.5713e-24
2.52739e-23
2.36078e-22
2.09245e-21
1.75706e-20
1.39553e-19
1.04653e-18
7.39682e-18
4.91801e-17
3.06991e-16
1.79539e-15
9.81672e-15
5.00723e-14
2.37731e-13
1.04825e-12
4.28338e-12
1.61858e-11
5.64512e-11
1.81418e-10
5.36531e-10
1.45908e-09
3.64814e-09
8.39124e-09
1.7781e-08
3.47881e-08
6.3028e-08
1.06124e-07
1.66723e-07
2.45423e-07
3.39964e-07
4.45037e-07
5.5281e-07
6.54061e-07
7.39565e-07
8.01377e-07
8.33769e-07
8.33766e-07
8.01366e-07
7.39547e-07
6.54038e-07
5.52785e-07
4.45011e-07
3.3994e-07
2.45401e-07
1.66706e-07
1.06111e-07
6.30187e-08
3.4782e-08
1.77774e-08
8.38922e-09
3.64711e-09
1.45861e-09
5.36329e-10
1.81339e-10
5.6423e-11
1.61766e-11
4.28062e-12
1.04749e-12
2.37537e-13
5.00264e-14
9.80671e-15
1.79336e-15
3.06607e-16
4.91124e-17
7.38565e-18
1.0448e-18
1.39301e-19
1.75363e-20
2.08801e-21
2.35537e-22
2.52113e-23
2.56446e-24
2.48242e-25
2.28994e-26
2.01558e-27
1.69489e-28
1.36318e-29
1.04984e-30
7.75018e-32
5.48989e-33
3.7351e-34
2.44304e-35
1.53757e-36
9.3194e-38
5.44345e-39
2.90101e-40
4.03597e-39
7.47349e-38
1.26134e-36
2.05089e-35
3.21047e-34
4.83431e-33
6.99591e-32
9.72051e-31
1.2955e-29
1.6544e-28
2.02221e-27
2.3632e-26
2.63721e-25
2.80683e-24
2.84541e-23
2.74365e-22
2.51269e-21
2.1823e-20
1.79456e-19
1.3949e-18
1.02306e-17
7.06687e-17
4.58867e-16
2.79515e-15
1.59396e-14
8.49109e-14
4.2161e-13
1.94694e-12
8.34303e-12
3.31048e-11
1.21388e-10
4.10567e-10
1.279e-09
3.66589e-09
9.66282e-09
2.34287e-08
5.23081e-08
1.07743e-07
2.05301e-07
3.63121e-07
5.98515e-07
9.23192e-07
1.33838e-06
1.83141e-06
2.37511e-06
2.93036e-06
3.45117e-06
3.89114e-06
4.20961e-06
4.37671e-06
4.37669e-06
4.20956e-06
3.89106e-06
3.45107e-06
2.93024e-06
2.37499e-06
1.83129e-06
1.33827e-06
9.23107e-07
5.9845e-07
3.63074e-07
2.05269e-07
1.07724e-07
5.22971e-08
2.34229e-08
9.66003e-09
3.66466e-09
1.2785e-09
4.10383e-10
1.21325e-10
3.30856e-11
8.33752e-12
1.94549e-12
4.21258e-13
8.48317e-14
1.5923e-14
2.79194e-15
4.58286e-16
7.05703e-17
1.02149e-17
1.39257e-18
1.79131e-19
2.178e-20
2.50733e-21
2.73733e-22
2.83835e-23
2.79935e-24
2.62966e-25
2.35595e-26
2.01558e-27
1.64862e-28
1.29068e-29
9.68204e-31
6.96652e-32
4.81277e-33
3.19533e-34
2.04067e-35
1.2547e-36
7.43199e-38
4.0124e-39
5.3495e-38
9.77603e-37
1.62655e-35
2.60639e-34
4.01959e-33
5.96093e-32
8.49251e-31
1.16126e-29
1.5225e-28
1.91187e-27
2.29697e-26
2.63721e-25
2.89e-24
3.01898e-23
3.00227e-22
2.83827e-21
2.547e-20
2.16622e-19
1.74326e-18
1.32514e-17
9.4978e-17
6.40656e-16
4.05895e-15
2.41045e-14
1.33894e-13
6.94143e-13
3.3512e-12
1.5033e-11
6.25209e-11
2.40559e-10
8.54648e-10
2.79891e-09
8.43834e-09
2.34019e-08
5.96921e-08
1.40134e-07
3.03249e-07
6.0637e-07
1.12399e-06
1.93885e-06
3.12565e-06
4.73011e-06
6.74912e-06
9.11787e-06
1.17085e-05
1.43409e-05
1.68047e-05
1.88852e-05
2.03921e-05
2.11834e-05
2.11833e-05
2.03919e-05
1.88848e-05
1.68042e-05
1.43404e-05
1.17079e-05
9.11737e-06
6.74867e-06
4.72973e-06
3.12535e-06
1.93864e-06
1.12384e-06
6.06274e-07
3.03192e-07
1.40103e-07
5.96769e-08
2.3395e-08
8.43543e-09
2.79779e-09
8.54257e-10
2.40433e-10
6.24837e-11
1.50229e-11
3.34866e-12
6.93554e-13
1.33767e-13
2.40792e-14
4.05423e-15
6.39835e-16
9.48444e-17
1.3231e-17
1.74033e-18
2.16226e-19
2.54196e-20
2.83219e-21
2.99533e-22
3.01147e-23
2.88228e-24
2.62966e-25
2.28994e-26
1.90562e-27
1.51719e-28
1.15695e-29
8.45902e-31
5.93599e-32
4.00177e-33
2.59416e-34
1.61849e-35
9.7249e-37
5.32006e-38
6.79004e-37
1.22428e-35
2.00749e-34
3.16916e-33
4.81347e-32
7.0276e-31
9.8533e-30
1.32543e-28
1.70878e-27
2.10913e-26
2.48954e-25
2.80683e-24
3.01898e-23
3.09373e-22
3.01639e-21
2.79416e-20
2.45536e-19
2.04357e-18
1.60823e-17
1.19462e-16
8.36048e-16
5.50197e-15
3.39795e-14
1.96526e-13
1.06215e-12
5.35249e-12
2.50929e-11
1.09194e-10
4.40089e-10
1.63938e-09
5.63383e-09
1.78336e-08
5.19407e-08
1.39123e-07
3.42786e-07
7.7782e-07
1.6288e-06
3.15709e-06
5.68552e-06
9.55406e-06
1.50499e-05
2.2326e-05
3.13294e-05
4.17583e-05
5.30617e-05
6.44827e-05
7.51386e-05
8.41262e-05
9.06346e-05
9.40529e-05
9.40526e-05
9.06338e-05
8.41248e-05
7.51369e-05
6.44807e-05
5.30597e-05
4.17564e-05
3.13276e-05
2.23245e-05
1.50486e-05
9.55313e-06
5.68487e-06
3.15666e-06
1.62854e-06
7.77673e-07
3.4271e-07
1.39087e-07
5.19249e-08
1.78273e-08
5.63154e-09
1.63862e-09
4.39854e-10
1.09127e-10
2.50757e-11
5.34837e-12
1.06124e-12
1.96337e-13
3.39434e-14
5.49551e-15
8.34968e-16
1.19293e-16
1.60574e-17
2.04013e-18
2.45087e-19
2.78861e-20
3.00992e-21
3.08658e-22
3.01147e-23
2.79935e-24
2.48242e-25
2.10269e-26
1.70321e-27
1.32083e-28
9.8169e-30
7.00003e-31
4.79345e-32
3.1552e-33
1.99814e-34
1.21826e-35
6.75487e-37
8.24385e-36
1.46615e-34
2.36854e-33
3.68256e-32
5.50663e-31
7.91211e-30
1.09133e-28
1.44357e-27
1.82931e-26
2.21833e-25
2.5713e-24
2.84541e-23
3.00227e-22
3.01639e-21
2.88171e-20
2.61396e-19
2.2478e-18
1.82944e-17
1.40682e-16
1.02032e-15
6.96612e-15
4.46831e-14
2.6872e-13
1.51193e-12
7.94101e-12
3.88467e-11
1.76594e-10
7.44317e-10
2.90235e-09
1.04488e-08
3.46688e-08
1.05866e-07
2.9727e-07
7.67447e-07
1.82286e-06
3.99018e-06
8.07093e-06
1.51393e-05
2.64493e-05
4.32425e-05
6.64846e-05
9.65872e-05
0.000133181
0.000174993
0.000219865
0.000264902
0.000306748
0.000341961
0.000367433
0.000380805
0.000380804
0.00036743
0.000341956
0.000306742
0.000264895
0.000219858
0.000174986
0.000133174
9.65817e-05
6.648e-05
4.3239e-05
2.64468e-05
1.51376e-05
8.06983e-06
3.98953e-06
1.82251e-06
7.67274e-07
2.97191e-07
1.05834e-07
3.46564e-08
1.04445e-08
2.90097e-09
7.43914e-10
1.76485e-10
3.88198e-11
7.93482e-12
1.51061e-12
2.6846e-13
4.46352e-14
6.95788e-15
1.01899e-15
1.40482e-16
1.8266e-17
2.244e-18
2.60916e-19
2.87599e-20
3.00992e-21
2.99533e-22
2.83835e-23
2.56446e-24
2.21201e-25
1.82374e-26
1.43889e-27
1.08756e-28
7.88306e-30
5.48517e-31
3.66735e-32
2.35819e-33
1.45938e-34
8.20373e-36
9.56242e-35
1.67701e-33
2.66824e-32
4.08434e-31
6.01068e-30
8.4962e-29
1.1524e-27
1.49834e-26
1.86547e-25
2.2215e-24
2.52739e-23
2.74365e-22
2.83827e-21
2.79416e-20
2.61396e-19
2.32026e-18
1.95109e-17
1.55164e-16
1.16497e-15
8.24212e-15
5.48436e-14
3.42524e-13
2.00362e-12
1.09532e-11
5.58323e-11
2.64756e-10
1.16523e-09
4.74888e-09
1.78827e-08
6.20975e-08
1.98509e-07
5.83477e-07
1.57596e-06
3.91238e-06
8.93776e-06
1.88317e-05
3.67171e-05
6.65277e-05
0.000112567
0.000178792
0.000267953
0.000380776
0.000515357
0.00066687
0.000827669
0.000987768
0.00113571
0.00125974
0.00134926
0.00139619
0.00139619
0.00134925
0.00125972
0.00113569
0.000987747
0.000827647
0.000666848
0.000515336
0.000380758
0.000267937
0.000178779
0.000112558
6.65214e-05
3.67129e-05
1.88292e-05
8.93631e-06
3.91163e-06
1.5756e-06
5.83321e-07
1.98447e-07
6.20749e-08
1.78752e-08
4.74659e-09
1.16459e-09
2.64591e-10
5.5793e-11
1.09446e-11
2.00186e-12
3.4219e-13
5.47844e-14
8.23232e-15
1.16344e-15
1.54943e-16
1.94805e-17
2.31634e-18
2.60916e-19
2.78861e-20
2.83219e-21
2.73733e-22
2.52113e-23
2.21561e-24
1.86018e-25
1.49381e-26
1.14868e-27
8.46706e-29
5.98878e-30
4.06856e-31
2.65732e-32
1.66975e-33
9.51877e-35
1.05837e-33
1.82978e-32
2.86635e-31
4.31818e-30
6.2518e-29
8.69019e-28
1.15862e-26
1.48009e-25
1.80964e-24
2.11522e-23
2.36078e-22
2.51269e-21
2.547e-20
2.45536e-19
2.2478e-18
1.95109e-17
1.60312e-16
1.24472e-15
9.11611e-15
6.2856e-14
4.07206e-13
2.47344e-12
1.40558e-11
7.45583e-11
3.68303e-10
1.69026e-09
7.18966e-09
2.82788e-08
1.02626e-07
3.42969e-07
1.05381e-06
2.97397e-06
7.7064e-06
1.83481e-05
4.02085e-05
8.13401e-05
0.000152512
0.000266352
0.000435641
0.000671056
0.000978813
0.00135867
0.00180258
0.0022942
0.00280929
0.00331711
0.00378288
0.00417128
0.00445055
0.00459666
0.00459665
0.00445052
0.00417124
0.00378283
0.00331705
0.00280923
0.00229414
0.00180252
0.00135862
0.000978768
0.000671019
0.000435612
0.000266331
0.000152498
8.13309e-05
4.0203e-05
1.83451e-05
7.70491e-06
2.97329e-06
1.05353e-06
3.4286e-07
1.02589e-07
2.82668e-08
7.18615e-09
1.68932e-09
3.68071e-10
7.45055e-11
1.40447e-11
2.47125e-12
4.06807e-13
6.27879e-14
9.10524e-15
1.2431e-15
1.60083e-16
1.94805e-17
2.244e-18
2.45087e-19
2.54196e-20
2.50733e-21
2.35537e-22
2.11002e-23
1.80487e-24
1.47592e-25
1.15514e-26
8.6624e-28
6.23054e-29
4.30259e-30
2.85538e-31
1.82236e-32
1.05385e-33
1.11627e-32
1.90191e-31
2.93231e-30
4.34604e-29
6.18775e-28
8.4548e-27
1.10755e-25
1.38947e-24
1.66751e-23
1.91213e-22
2.09245e-21
2.1823e-20
2.16622e-19
2.04357e-18
1.82944e-17
1.55164e-16
1.24472e-15
9.42736e-15
6.72864e-14
4.51675e-13
2.84567e-12
1.67903e-11
9.25688e-11
4.7575e-10
2.2738e-09
1.00814e-08
4.13636e-08
1.56682e-07
5.46715e-07
1.75394e-06
5.16584e-06
1.39569e-05
3.45931e-05
7.87478e-05
0.000165038
0.000319613
0.000574725
0.000965037
0.0015223
0.00226955
0.00321588
0.00435266
0.00565133
0.00706288
0.00851931
0.00993733
0.0112249
0.0122902
0.0130518
0.0134489
0.0134489
0.0130517
0.0122901
0.0112248
0.0099372
0.00851917
0.00706274
0.00565119
0.00435253
0.00321576
0.00226945
0.00152223
0.000964977
0.000574681
0.000319584
0.000165019
7.87372e-05
3.45874e-05
1.39542e-05
5.16464e-06
1.75345e-06
5.46539e-07
1.56623e-07
4.13458e-08
1.00764e-08
2.27253e-09
4.75448e-10
9.25028e-11
1.67769e-11
2.84314e-12
4.5123e-13
6.72133e-14
9.4161e-15
1.2431e-15
1.54943e-16
1.8266e-17
2.04013e-18
2.16226e-19
2.178e-20
2.08801e-21
1.90778e-22
1.66344e-23
1.38583e-24
1.10446e-25
8.42964e-27
6.16815e-28
4.33142e-29
2.92184e-30
1.89471e-31
1.11181e-32
1.12035e-31
1.88062e-30
2.85267e-29
4.15798e-28
5.81943e-27
7.8129e-26
1.00514e-24
1.23777e-23
1.45734e-22
1.63856e-21
1.75706e-20
1.79456e-19
1.74326e-18
1.60823e-17
1.40682e-16
1.16497e-15
9.11611e-15
6.72864e-14
4.67541e-13
3.05207e-12
1.86773e-11
1.06905e-10
5.70971e-10
2.83857e-09
1.31028e-08
5.60133e-08
2.21201e-07
8.04985e-07
2.69354e-06
8.2713e-06
2.32786e-05
6.00103e-05
0.00014177
0.000307459
0.000614052
0.00113453
0.00195027
0.00313932
0.00476332
0.00685616
0.00941568
0.0123988
0.0157195
0.0192494
0.0228223
0.0262439
0.0293075
0.0318134
0.03359
0.0345114
0.0345114
0.0335899
0.0318133
0.0293073
0.0262437
0.0228221
0.0192492
0.0157193
0.0123986
0.00941543
0.00685593
0.00476313
0.00313917
0.00195016
0.00113445
0.000613997
0.000307425
0.000141751
6.00005e-05
2.3274e-05
8.26937e-06
2.6928e-06
8.04724e-07
2.21117e-07
5.5989e-08
1.30962e-08
2.83697e-09
5.70606e-10
1.06828e-10
1.86624e-11
3.04935e-12
4.6708e-13
6.72133e-14
9.10524e-15
1.16344e-15
1.40482e-16
1.60574e-17
1.74033e-18
1.79131e-19
1.75363e-20
1.63511e-21
1.45405e-22
1.23478e-23
1.00253e-24
7.79132e-26
5.8023e-27
4.14497e-28
2.84318e-29
1.87399e-30
1.11617e-31
1.06845e-30
1.7664e-29
2.63516e-28
3.77583e-27
5.19264e-26
6.84682e-25
8.6467e-24
1.04468e-22
1.20607e-21
1.32887e-20
1.39553e-19
1.3949e-18
1.32514e-17
1.19462e-16
1.02032e-15
8.24212e-15
6.2856e-14
4.51675e-13
3.05207e-12
1.93519e-11
1.14876e-10
6.3692e-10
3.29013e-09
1.57941e-08
7.02723e-08
2.89011e-07
1.09581e-06
3.82075e-06
1.22224e-05
3.58056e-05
9.59401e-05
0.000235062
0.000527114
0.00108448
0.00205535
0.00360834
0.00590721
0.00908338
0.0132135
0.0183057
0.0242928
0.0310315
0.0383027
0.045818
0.0532326
0.0601703
0.0662561
0.0711499
0.0745746
0.0763366
0.0763366
0.0745745
0.0711497
0.0662559
0.06017
0.0532322
0.0458176
0.0383023
0.031031
0.0242924
0.0183053
0.0132132
0.00908306
0.00590695
0.00360814
0.00205521
0.00108439
0.000527057
0.000235031
9.59246e-05
3.57986e-05
1.22196e-05
3.81969e-06
1.09546e-06
2.88902e-07
7.02416e-08
1.57862e-08
3.28826e-09
6.36512e-10
1.14793e-10
1.93363e-11
3.04935e-12
4.5123e-13
6.27879e-14
8.23232e-15
1.01899e-15
1.19293e-16
1.3231e-17
1.39257e-18
1.39301e-19
1.32629e-20
1.20356e-21
1.04234e-22
8.62599e-24
6.8293e-25
5.17847e-26
3.76486e-27
2.62701e-28
1.76061e-29
1.06474e-30
9.66713e-30
1.57354e-28
2.30777e-27
3.24935e-26
4.38895e-25
5.68109e-24
7.03932e-23
8.3398e-22
9.43577e-21
1.01821e-19
1.04653e-18
1.02306e-17
9.4978e-17
8.36048e-16
6.96612e-15
5.48436e-14
4.07206e-13
2.84567e-12
1.86773e-11
1.14876e-10
6.60537e-10
3.54188e-09
1.76646e-08
8.17187e-08
3.49682e-07
1.38015e-06
5.01025e-06
1.66847e-05
5.08479e-05
0.00014155
0.000359547
0.000833347
0.00176511
0.00342769
0.00613376
0.0101824
0.0158027
0.0231131
0.0321042
0.0426395
0.0544645
0.0672154
0.0804296
0.0935665
0.106049
0.117316
0.126881
0.134359
0.139479
0.142078
0.142078
0.139479
0.134359
0.126881
0.117316
0.106048
0.0935661
0.0804291
0.0672149
0.054464
0.0426389
0.0321036
0.0231125
0.0158022
0.010182
0.00613345
0.00342747
0.00176496
0.00083326
0.0003595
0.000141527
5.08379e-05
1.66808e-05
5.00886e-06
1.37969e-06
3.49549e-07
8.16829e-08
1.76557e-08
3.53987e-09
6.60114e-10
1.14793e-10
1.86624e-11
2.84314e-12
4.06807e-13
5.47844e-14
6.95788e-15
8.34968e-16
9.48444e-17
1.02149e-17
1.0448e-18
1.0164e-19
9.41766e-21
8.32261e-22
7.02376e-23
5.66766e-24
4.37787e-25
3.2406e-26
2.30116e-27
1.56875e-28
9.63599e-30
8.28466e-29
1.32725e-27
1.9129e-26
2.6455e-25
3.50806e-24
4.45555e-23
5.41402e-22
6.28643e-21
6.9664e-20
7.35797e-19
7.39682e-18
7.06687e-17
6.40656e-16
5.50197e-15
4.46831e-14
3.42524e-13
2.47344e-12
1.67903e-11
1.06905e-10
6.3692e-10
3.54188e-09
1.83355e-08
8.81157e-08
3.91969e-07
1.60912e-06
6.07769e-06
2.10571e-05
6.67313e-05
0.000192951
0.000508067
0.00121713
0.00265376
0.00527767
0.00961439
0.0161457
0.0251956
0.0368625
0.0510108
0.0673051
0.0852544
0.104244
0.123558
0.142407
0.160002
0.175652
0.188859
0.19936
0.207098
0.212151
0.214637
0.214637
0.212151
0.207099
0.19936
0.18886
0.175652
0.160002
0.142407
0.123557
0.104244
0.0852539
0.0673045
0.0510101
0.0368618
0.025195
0.0161451
0.00961395
0.00527735
0.00265355
0.001217
0.000508001
0.00019292
6.67183e-05
2.10521e-05
6.07599e-06
1.60859e-06
3.9182e-07
8.8077e-08
1.83263e-08
3.53987e-09
6.36512e-10
1.06828e-10
1.67769e-11
2.47125e-12
3.4219e-13
4.46352e-14
5.49551e-15
6.39835e-16
7.05703e-17
7.38565e-18
7.34595e-19
6.95413e-20
6.27452e-21
5.40301e-22
4.44585e-23
3.49989e-24
2.63893e-25
1.90784e-26
1.32351e-27
8.25994e-29
6.71331e-28
1.05819e-26
1.49812e-25
2.03417e-24
2.64691e-23
3.29704e-22
3.92676e-21
4.46618e-20
4.84468e-19
5.00525e-18
4.91801e-17
4.58867e-16
4.05895e-15
3.39795e-14
2.6872e-13
2.00362e-12
1.40558e-11
9.25688e-11
5.70971e-10
3.29013e-09
1.76646e-08
8.81157e-08
4.07161e-07
1.73732e-06
6.82316e-06
2.45836e-05
8.09905e-05
0.000243224
0.000664025
0.00164477
0.00369318
0.00752353
0.0139467
0.0236556
0.0370028
0.0538921
0.0738208
0.096008
0.119522
0.143358
0.166461
0.187756
0.206246
0.221194
0.232307
0.239794
0.244274
0.246584
0.247562
0.24787
0.247871
0.247562
0.246584
0.244275
0.239795
0.232308
0.221195
0.206247
0.187757
0.166462
0.143358
0.119522
0.0960075
0.0738202
0.0538914
0.0370021
0.0236549
0.0139461
0.0075231
0.00369289
0.00164461
0.000663941
0.000243185
8.09747e-05
2.45778e-05
6.82125e-06
1.73675e-06
4.07005e-07
8.8077e-08
1.76557e-08
3.28826e-09
5.70606e-10
9.25028e-11
1.40447e-11
2.00186e-12
2.6846e-13
3.39434e-14
4.05423e-15
4.58286e-16
4.91124e-17
4.99779e-18
4.83688e-19
4.45843e-20
3.91943e-21
3.29044e-22
2.64124e-23
2.02951e-24
1.49446e-25
1.05543e-26
6.69479e-28
5.13443e-27
7.95998e-26
1.10652e-24
1.47444e-23
1.88177e-22
2.29765e-21
2.68073e-20
2.98485e-19
3.16745e-18
3.19886e-17
3.06991e-16
2.79515e-15
2.41045e-14
1.96526e-13
1.51193e-12
1.09532e-11
7.45583e-11
4.7575e-10
2.83857e-09
1.57941e-08
8.17187e-08
3.91969e-07
1.73732e-06
7.09123e-06
2.65599e-05
9.09512e-05
0.000283715
0.000803424
0.00205914
0.00476616
0.0099554
0.01879
0.0321756
0.0503439
0.0726871
0.0979463
0.12457
0.151003
0.17581
0.197654
0.215257
0.227496
0.233706
0.234015
0.229445
0.221681
0.212658
0.204187
0.197722
0.194245
0.194245
0.197722
0.204188
0.212659
0.221683
0.229446
0.234016
0.233708
0.227498
0.215258
0.197655
0.17581
0.151003
0.12457
0.097946
0.0726866
0.0503431
0.0321748
0.0187893
0.00995487
0.00476581
0.00205894
0.000803322
0.00028367
9.09334e-05
2.65537e-05
7.08924e-06
1.73675e-06
3.9182e-07
8.16829e-08
1.57862e-08
2.83697e-09
4.75448e-10
7.45055e-11
1.09446e-11
1.51061e-12
1.96337e-13
2.40792e-14
2.79194e-15
3.06607e-16
3.19452e-17
3.16279e-18
2.98012e-19
2.67615e-20
2.29344e-21
1.87807e-22
1.47134e-23
1.10404e-24
7.94092e-26
5.12138e-27
3.69919e-26
5.63853e-25
7.69289e-24
1.00551e-22
1.25807e-21
1.50497e-20
1.71916e-19
1.87283e-18
1.94297e-17
1.91682e-16
1.79539e-15
1.59396e-14
1.33894e-13
1.06215e-12
7.94101e-12
5.58323e-11
3.68303e-10
2.2738e-09
1.31028e-08
7.02723e-08
3.49682e-07
1.60912e-06
6.82316e-06
2.65599e-05
9.45334e-05
0.000306388
0.000900505
0.00239057
0.00571226
0.0122556
0.023592
0.0408263
0.063861
0.0911407
0.120161
0.148331
0.173535
0.194215
0.209166
0.217269
0.217514
0.209465
0.193866
0.172841
0.149365
0.126381
0.106196
0.0903003
0.0794679
0.0740086
0.0740085
0.0794678
0.0903003
0.106196
0.126382
0.149366
0.172842
0.193867
0.209467
0.217516
0.217271
0.209168
0.194217
0.173536
0.148332
0.120161
0.0911404
0.0638604
0.0408255
0.0235912
0.0122549
0.00571185
0.00239034
0.000900392
0.000306339
9.45149e-05
2.65537e-05
6.82125e-06
1.60859e-06
3.49549e-07
7.02416e-08
1.30962e-08
2.27253e-09
3.68071e-10
5.5793e-11
7.93482e-12
1.06124e-12
1.33767e-13
1.5923e-14
1.79336e-15
1.91446e-16
1.94038e-17
1.87012e-18
1.71648e-19
1.50245e-20
1.2558e-21
1.00357e-22
7.67704e-24
5.62613e-25
3.69055e-26
2.50553e-25
3.75354e-24
5.02403e-23
6.43842e-22
7.89331e-21
9.24616e-20
1.03354e-18
1.10093e-17
1.11591e-16
1.07465e-15
9.81672e-15
8.49109e-14
6.94143e-13
5.35249e-12
3.88467e-11
2.64756e-10
1.69026e-09
1.00814e-08
5.60133e-08
2.89011e-07
1.38015e-06