/*--------------------------------*- C++ -*----------------------------------*\
  =========                 |
  \\      /  F ield         | OpenFOAM: The Open Source CFD Toolbox
   \\    /   O peration     | Website:  https://openfoam.org
    \\  /    A nd           | Version:  dev
     \\/     M anipulation  |
\*---------------------------------------------------------------------------*/
FoamFile
{
    format      ascii;
    class       volScalarField;
    location    "10";
    object      h_0;
}
// * * * * * * * * * * * * * * * * * * * * * * * * * * * * * * * * * * * * * //

dimensions      [0 1 0 0 0 0 0];

internalField   nonuniform List<scalar> 
10000
(
1.21272e-52
2.55839e-51
4.96812e-50
9.32038e-49
1.6882e-47
2.95006e-46
4.96951e-45
8.06331e-44
1.25909e-42
1.89039e-41
2.72639e-40
3.77346e-39
5.00676e-38
6.36163e-37
7.73179e-36
8.97787e-35
9.94721e-34
1.05024e-32
1.0552e-31
1.00739e-30
9.12437e-30
7.82788e-29
6.34996e-28
4.86175e-27
3.5065e-26
2.37757e-25
1.51232e-24
9.00383e-24
5.00562e-23
2.59217e-22
1.24717e-21
5.56027e-21
2.29081e-20
8.69798e-20
3.0353e-19
9.70973e-19
2.84043e-18
7.58274e-18
1.84429e-17
4.08296e-17
8.22631e-17
1.50977e-16
2.52929e-16
3.88112e-16
5.48147e-16
7.17056e-16
8.7543e-16
1.00592e-15
1.09701e-15
1.14333e-15
1.14332e-15
1.09698e-15
1.00587e-15
8.7536e-16
7.16977e-16
5.48068e-16
3.88041e-16
2.52871e-16
1.50935e-16
8.22357e-17
4.08134e-17
1.84343e-17
7.57863e-18
2.83865e-18
9.70275e-19
3.03281e-19
8.68988e-20
2.28841e-20
5.55372e-21
1.24553e-21
2.58838e-22
4.99752e-23
8.98777e-24
1.50936e-24
2.37248e-25
3.4983e-26
4.84937e-27
6.33242e-28
7.80449e-29
9.09493e-30
1.00389e-30
1.05126e-31
1.04604e-32
9.90463e-34
8.93682e-35
7.6941e-36
6.32862e-37
4.97916e-38
3.75139e-39
2.7095e-40
1.87799e-41
1.25037e-42
8.00436e-44
4.93122e-45
2.92612e-46
1.67379e-47
9.23684e-49
4.92139e-50
2.53316e-51
1.20021e-52
2.55839e-51
5.34212e-50
1.02605e-48
1.90352e-47
3.40886e-46
5.88833e-45
9.80301e-44
1.57163e-42
2.42431e-41
3.59482e-40
5.11925e-39
6.99428e-38
9.15871e-37
1.14817e-35
1.37645e-34
1.57606e-33
1.72145e-32
1.79121e-31
1.77305e-30
1.66714e-29
1.4867e-28
1.25535e-27
1.00194e-26
7.54503e-26
5.35037e-25
3.56557e-24
2.22827e-23
1.30295e-22
7.11193e-22
3.6148e-21
1.70654e-20
7.46362e-20
3.01603e-19
1.12311e-18
3.844e-18
1.20629e-17
3.46311e-17
9.07867e-17
2.17039e-16
4.72855e-16
9.39022e-16
1.70178e-15
2.82112e-15
4.29326e-15
6.02714e-15
7.85348e-15
9.56743e-15
1.09841e-14
1.19773e-14
1.24841e-14
1.2484e-14
1.19769e-14
1.09835e-14
9.56671e-15
7.85267e-15
6.02632e-15
4.29252e-15
2.82052e-15
1.70134e-15
9.38731e-16
4.72681e-16
2.16945e-16
9.0741e-17
3.4611e-17
1.20548e-17
3.84106e-18
1.12213e-18
3.01307e-19
7.45541e-20
1.70444e-20
3.60985e-21
7.10114e-22
1.30077e-22
2.22417e-23
3.55837e-24
5.33858e-25
7.52693e-26
9.99332e-27
1.25181e-27
1.48217e-28
1.66166e-29
1.76678e-30
1.78443e-31
1.71447e-32
1.56923e-33
1.37008e-34
1.14251e-35
9.11073e-37
6.95538e-38
5.08907e-39
3.57239e-40
2.40831e-41
1.56068e-42
9.731e-44
5.84276e-45
3.38111e-46
1.88723e-47
1.01683e-48
5.29178e-50
2.53315e-51
4.96812e-50
1.02605e-48
1.94768e-47
3.57027e-46
6.31615e-45
1.07755e-43
1.77134e-42
2.8034e-41
4.26781e-40
6.24399e-39
8.77084e-38
1.18169e-36
1.52545e-35
1.88468e-34
2.22599e-33
2.51031e-32
2.69956e-31
2.76462e-30
2.69241e-29
2.48979e-28
2.18281e-27
1.81128e-26
1.42007e-25
1.05001e-24
7.30794e-24
4.77782e-23
2.928e-22
1.6782e-21
8.975e-21
4.46776e-20
2.06502e-19
8.83946e-19
3.49525e-18
1.27344e-17
4.26439e-17
1.30957e-16
3.68071e-16
9.45324e-16
2.21634e-15
4.7421e-15
9.26453e-15
1.65525e-14
2.71159e-14
4.08813e-14
5.70006e-14
7.39404e-14
8.98519e-14
1.03048e-13
1.12342e-13
1.17103e-13
1.17102e-13
1.12339e-13
1.03043e-13
8.98456e-14
7.39334e-14
5.69935e-14
4.08748e-14
2.71106e-14
1.65486e-14
9.26189e-15
4.74049e-15
2.21546e-15
9.44886e-16
3.67874e-16
1.30876e-16
4.26138e-17
1.27242e-17
3.49208e-18
8.83044e-19
2.06266e-19
4.46207e-20
8.96232e-21
1.67558e-21
2.92296e-22
4.7688e-23
7.29285e-24
1.04765e-24
1.4166e-25
1.80647e-26
2.17655e-27
2.48208e-28
2.68344e-29
2.75473e-30
2.68921e-31
2.50002e-32
2.21625e-33
1.87589e-34
1.51787e-35
1.17546e-36
8.72177e-38
6.20699e-39
4.24106e-40
2.78484e-41
1.75896e-42
1.06961e-43
6.26719e-45
3.54117e-46
1.931e-47
1.01683e-48
4.92139e-50
9.32038e-49
1.90352e-47
3.57027e-46
6.46522e-45
1.12962e-43
1.90288e-42
3.08793e-41
4.82313e-40
7.24457e-39
1.04548e-37
1.44816e-36
1.92342e-35
2.44696e-34
2.97845e-33
3.46462e-32
3.84671e-31
4.07128e-30
4.10195e-29
3.92867e-28
3.57145e-27
3.0768e-26
2.50774e-25
1.93034e-24
1.40071e-23
9.56279e-23
6.12988e-22
3.68149e-21
2.06694e-20
1.08232e-19
5.27305e-19
2.3844e-18
9.98212e-18
3.85931e-17
1.37462e-16
4.50035e-16
1.35144e-15
3.71599e-15
9.34388e-15
2.14716e-14
4.50937e-14
8.66332e-14
1.52541e-13
2.46868e-13
3.6864e-13
5.10398e-13
6.59011e-13
7.98711e-13
9.14945e-13
9.97162e-13
1.03944e-12
1.03944e-12
9.97136e-13
9.14904e-13
7.98659e-13
6.58953e-13
5.10339e-13
3.68587e-13
2.46824e-13
1.52508e-13
8.66106e-14
4.50797e-14
2.14638e-14
9.33991e-15
3.71415e-15
1.35067e-15
4.49743e-16
1.37361e-16
3.85607e-17
9.97269e-18
2.38188e-18
5.26682e-19
1.0809e-19
2.06393e-20
3.67558e-21
6.11907e-22
9.54432e-23
1.39776e-23
1.92591e-24
2.50149e-25
3.0685e-26
3.56105e-27
3.91635e-28
4.08812e-29
4.05656e-30
3.83182e-31
3.45029e-32
2.9653e-33
2.43546e-34
1.91381e-35
1.44048e-36
1.0396e-37
7.20148e-39
4.79281e-40
3.06743e-41
1.88957e-42
1.1213e-43
6.41508e-45
3.54117e-46
1.88723e-47
9.23683e-49
1.6882e-47
3.40886e-46
6.31615e-45
1.12962e-43
1.94885e-42
3.24076e-41
5.19014e-40
7.9984e-39
1.18503e-37
1.68637e-36
2.30273e-35
3.01411e-34
3.77772e-33
4.52864e-32
5.18629e-31
5.66708e-30
5.90074e-29
5.84659e-28
5.50453e-27
4.91699e-26
4.1605e-25
3.3291e-24
2.51464e-23
1.7897e-22
1.19783e-21
7.52369e-21
4.42541e-20
2.43218e-19
1.2461e-18
5.93739e-18
2.62463e-17
1.07377e-16
4.05591e-16
1.41121e-15
4.51328e-15
1.32429e-14
3.55975e-14
8.75759e-14
1.97125e-13
4.06151e-13
7.66986e-13
1.33046e-12
2.12657e-12
3.14456e-12
4.3225e-12
5.55429e-12
6.71294e-12
7.67987e-12
8.36665e-12
8.72109e-12
8.72103e-12
8.36645e-12
7.67956e-12
6.71253e-12
5.55383e-12
4.32204e-12
3.14414e-12
2.12622e-12
1.33019e-12
7.66803e-13
4.06036e-13
1.97059e-13
8.75419e-14
3.55814e-14
1.3236e-14
4.51059e-15
1.41025e-15
4.05278e-16
1.07284e-16
2.62206e-17
5.93089e-18
1.24458e-18
2.42889e-19
4.4188e-20
7.51132e-21
1.19567e-21
1.78618e-22
2.50924e-23
3.32133e-24
4.14997e-25
4.90355e-26
5.4883e-27
5.82804e-28
5.88064e-29
5.64639e-30
5.16605e-31
4.50977e-32
3.76095e-33
2.99987e-34
2.29118e-35
1.67739e-36
1.17835e-37
7.95071e-39
5.15745e-40
3.21922e-41
1.9352e-42
1.1213e-43
6.26719e-45
3.38111e-46
1.67379e-47
2.95006e-46
5.88833e-45
1.07755e-43
1.90288e-42
3.24076e-41
5.31853e-40
8.40399e-39
1.27748e-37
1.86637e-36
2.61823e-35
3.52334e-34
4.54344e-33
5.60823e-32
6.61883e-31
7.45988e-30
8.0192e-29
8.21116e-28
7.99741e-27
7.39829e-26
6.49057e-25
5.3914e-24
4.23302e-23
3.13583e-22
2.18773e-21
1.43456e-20
8.82342e-20
5.07941e-19
2.73074e-18
1.36786e-17
6.36906e-17
2.7501e-16
1.09858e-15
4.05063e-15
1.37556e-14
4.29387e-14
1.23004e-13
3.22979e-13
7.76852e-13
1.71174e-12
3.45811e-12
6.41613e-12
1.09607e-11
1.72978e-11
2.53224e-11
3.4551e-11
4.41757e-11
5.32332e-11
6.08132e-11
6.62177e-11
6.90161e-11
6.90156e-11
6.62162e-11
6.08108e-11
5.32302e-11
4.41724e-11
3.45476e-11
2.53193e-11
1.72952e-11
1.09587e-11
6.41474e-12
3.45722e-12
1.71122e-12
7.76577e-13
3.22846e-13
1.22946e-13
4.29153e-14
1.3747e-14
4.04776e-15
1.0977e-15
2.74761e-16
6.36262e-17
1.36632e-17
2.72732e-18
5.07236e-19
8.80993e-20
1.43215e-20
2.18371e-21
3.12954e-22
4.22378e-23
5.37863e-24
6.47393e-25
7.37781e-26
7.97357e-27
8.18486e-28
7.99164e-29
7.43244e-30
6.59282e-31
5.58472e-32
4.52316e-33
3.50663e-34
2.60505e-35
1.85641e-36
1.27026e-37
8.35382e-39
5.28501e-40
3.21922e-41
1.88957e-42
1.06961e-43
5.84276e-45
2.92612e-46
4.96951e-45
9.80301e-44
1.77134e-42
3.08793e-41
5.19014e-40
8.40399e-39
1.30985e-37
1.96339e-36
2.82774e-35
3.90934e-34
5.18277e-33
6.582e-32
7.99858e-31
9.29018e-30
1.03007e-28
1.08888e-27
1.09596e-26
1.04879e-25
9.52852e-25
8.20596e-24
6.6879e-23
5.14945e-22
3.73903e-21
2.55543e-20
1.64064e-19
9.87437e-19
5.55929e-18
2.92131e-17
1.42952e-16
6.49901e-16
2.73866e-15
1.06725e-14
3.83771e-14
1.2708e-13
3.86825e-13
1.08088e-12
2.77001e-12
6.50889e-12
1.40297e-11
2.77748e-11
5.06066e-11
8.51048e-11
1.32567e-10
1.92076e-10
2.6008e-10
3.30804e-10
3.97377e-10
4.53231e-10
4.93196e-10
5.13953e-10
5.1395e-10
4.93186e-10
4.53215e-10
3.97356e-10
3.30781e-10
2.60057e-10
1.92054e-10
1.32549e-10
8.50908e-11
5.05966e-11
2.77683e-11
1.40259e-11
6.5068e-12
2.76898e-12
1.08041e-12
3.86632e-13
1.27008e-13
3.83522e-14
1.06646e-14
2.73639e-15
6.49295e-16
1.42803e-16
2.91792e-17
5.55215e-18
9.86036e-19
1.63808e-19
2.55105e-20
3.73204e-21
5.13896e-22
6.67309e-23
8.18627e-24
9.50381e-25
1.04586e-25
1.09266e-26
1.08537e-27
1.0265e-28
9.2558e-30
7.96698e-31
6.5543e-32
5.15956e-33
3.89074e-34
2.81347e-35
1.9529e-36
1.30245e-37
8.35382e-39
5.15745e-40
3.06743e-41
1.75896e-42
9.731e-44
4.93121e-45
8.06331e-44
1.57163e-42
2.8034e-41
4.82313e-40
7.9984e-39
1.27748e-37
1.96339e-36
2.9012e-35
4.11777e-34
5.60838e-33
7.32252e-32
9.1552e-31
1.0949e-29
1.25104e-28
1.36402e-27
1.41732e-26
1.40158e-25
1.31721e-24
1.1747e-23
9.92547e-23
7.93245e-22
5.98606e-21
4.25756e-20
2.84864e-19
1.78938e-18
1.05306e-17
5.7937e-17
2.97332e-16
1.42012e-15
6.29811e-15
2.58765e-14
9.82766e-14
3.443e-13
1.11059e-12
3.29322e-12
8.96719e-12
2.24085e-11
5.13967e-11
1.08293e-10
2.09955e-10
3.7547e-10
6.2132e-10
9.54941e-10
1.369e-09
1.8391e-09
2.32653e-09
2.78536e-09
3.17118e-09
3.44812e-09
3.59235e-09
3.59233e-09
3.44806e-09
3.17107e-09
2.78523e-09
2.32638e-09
1.83895e-09
1.36886e-09
9.54824e-10
6.21228e-10
3.75403e-10
2.09911e-10
1.08266e-10
5.13818e-11
2.24009e-11
8.96368e-12
3.29173e-12
1.11001e-12
3.44096e-13
9.82106e-14
2.58569e-14
6.29273e-15
1.41876e-15
2.97015e-16
5.78683e-17
1.05168e-17
1.78679e-18
2.84411e-19
4.25016e-20
5.9747e-21
7.91606e-22
9.90322e-23
1.17185e-23
1.31376e-24
1.39763e-25
1.41302e-26
1.35959e-27
1.24668e-28
1.09083e-29
9.1189e-31
7.29161e-32
5.58322e-33
4.09816e-34
2.88656e-35
1.9529e-36
1.27026e-37
7.95071e-39
4.79281e-40
2.78484e-41
1.56068e-42
8.00436e-44
1.25909e-42
2.42431e-41
4.26781e-40
7.24457e-39
1.18503e-37
1.86637e-36
2.82774e-35
4.11777e-34
5.75782e-33
7.72317e-32
9.92723e-31
1.22147e-29
1.43705e-28
1.61463e-27
1.7304e-26
1.76654e-25
1.71555e-24
1.58257e-23
1.38464e-22
1.14719e-21
8.98515e-21
6.6412e-20
4.62376e-19
3.02645e-18
1.8586e-17
1.06867e-16
5.74074e-16
2.8747e-15
1.33886e-14
5.78652e-14
2.31563e-13
8.56182e-13
2.91915e-12
9.16229e-12
2.64382e-11
7.00778e-11
1.70592e-10
3.81579e-10
7.85275e-10
1.48996e-09
2.61378e-09
4.254e-09
6.44864e-09
9.14414e-09
1.21839e-08
1.53255e-08
1.82819e-08
2.07725e-08
2.25654e-08
2.35013e-08
2.35012e-08
2.2565e-08
2.07719e-08
1.82811e-08
1.53246e-08
1.2183e-08
9.14331e-09
6.44793e-09
4.25344e-09
2.61337e-09
1.48968e-09
7.85101e-10
3.8148e-10
1.7054e-10
7.00531e-11
2.64274e-11
9.15799e-12
2.91759e-12
8.55659e-13
2.31402e-13
5.78199e-14
1.33769e-14
2.87187e-15
5.73447e-16
1.06738e-16
1.85611e-17
3.02199e-18
4.61629e-19
6.62948e-20
8.96788e-21
1.14479e-21
1.38151e-22
1.5787e-23
1.71103e-24
1.76152e-25
1.72512e-26
1.60935e-27
1.43203e-28
1.21692e-29
9.88778e-31
7.69053e-32
5.73196e-33
4.09816e-34
2.81347e-35
1.85641e-36
1.17835e-37
7.20148e-39
4.24106e-40
2.40831e-41
1.25037e-42
1.89039e-41
3.59482e-40
6.24399e-39
1.04548e-37
1.68637e-36
2.61823e-35
3.90934e-34
5.60838e-33
7.72317e-32
1.01986e-30
1.2901e-29
1.56155e-28
1.80653e-27
1.9951e-26
2.1007e-25
2.10602e-24
2.00749e-23
1.81677e-22
1.55858e-21
1.26543e-20
9.70706e-20
7.02264e-19
4.78261e-18
3.06008e-17
1.83578e-16
1.03041e-15
5.39953e-15
2.6357e-14
1.19579e-13
5.03112e-13
1.95877e-12
7.0425e-12
2.33401e-11
7.11965e-11
1.99677e-10
5.14622e-10
1.21904e-09
2.65655e-09
5.33519e-09
9.89935e-09
1.70245e-08
2.72374e-08
4.07058e-08
5.70711e-08
7.53974e-08
9.42704e-08
1.1202e-07
1.26995e-07
1.37801e-07
1.43453e-07
1.43452e-07
1.37798e-07
1.26992e-07
1.12016e-07
9.42655e-08
7.53924e-08
5.70664e-08
4.07017e-08
2.72341e-08
1.70221e-08
9.89769e-09
5.33414e-09
2.65593e-09
1.2187e-09
5.1446e-10
1.99604e-10
7.11664e-11
2.33288e-11
7.03859e-12
1.95754e-12
5.02753e-13
1.19483e-13
2.63333e-14
5.39411e-15
1.02926e-15
1.83351e-16
3.05592e-17
4.77547e-18
7.01116e-19
9.68973e-20
1.26297e-20
1.55529e-21
1.81262e-22
2.00254e-23
2.10043e-24
2.0947e-25
1.989e-26
1.80061e-27
1.55609e-28
1.28528e-29
1.01581e-30
7.69053e-32
5.58322e-33
3.89074e-34
2.60505e-35
1.67739e-36
1.0396e-37
6.20699e-39
3.57239e-40
1.87799e-41
2.72639e-40
5.11925e-39
8.77084e-38
1.44816e-36
2.30273e-35
3.52334e-34
5.18277e-33
7.32252e-32
9.92723e-31
1.2901e-29
1.60538e-28
1.9108e-27
2.17279e-26
2.35753e-25
2.43765e-24
2.39868e-23
2.24306e-22
1.99035e-21
1.67322e-20
1.33044e-19
9.98864e-19
7.06801e-18
4.70482e-17
2.94024e-16
1.72156e-15
9.42405e-15
4.81257e-14
2.28757e-13
1.00987e-12
4.13132e-12
1.56293e-11
5.45723e-11
1.75576e-10
5.1982e-10
1.41512e-09
3.54176e-09
8.15419e-09
1.72937e-08
3.38612e-08
6.13913e-08
1.0343e-07
1.62574e-07
2.39414e-07
3.3175e-07
4.34392e-07
5.39683e-07
6.38606e-07
7.22144e-07
7.82533e-07
8.14178e-07
8.14174e-07
7.82521e-07
7.22126e-07
6.38584e-07
5.39658e-07
4.34366e-07
3.31726e-07
2.39393e-07
1.62557e-07
1.03417e-07
6.13822e-08
3.38552e-08
1.72901e-08
8.15223e-09
3.54076e-09
1.41466e-09
5.19623e-10
1.75499e-10
5.4545e-11
1.56204e-11
4.12865e-12
1.00913e-12
2.2857e-13
4.80815e-14
9.41441e-15
1.71961e-15
2.93656e-16
4.69833e-17
7.05732e-18
9.97212e-19
1.32804e-19
1.66994e-20
1.98612e-21
2.23791e-22
2.39274e-23
2.43116e-24
2.35078e-25
2.16613e-26
1.90453e-27
1.59976e-28
1.28528e-29
9.88778e-31
7.29161e-32
5.15956e-33
3.50663e-34
2.29118e-35
1.44048e-36
8.72177e-38
5.08907e-39
2.70949e-40
3.77346e-39
6.99428e-38
1.18169e-36
1.92342e-35
3.01411e-34
4.54344e-33
6.582e-32
9.1552e-31
1.22147e-29
1.56155e-28
1.9108e-27
2.23544e-26
2.49739e-25
2.66096e-24
2.70053e-23
2.60686e-22
2.39011e-21
2.07819e-20
1.7109e-19
1.33139e-18
9.77603e-18
6.76074e-17
4.39502e-16
2.68033e-15
1.53028e-14
8.16154e-14
4.05727e-13
1.87582e-12
8.04781e-12
3.19711e-11
1.17368e-10
3.9743e-10
1.23948e-09
3.55652e-09
9.38448e-09
2.27768e-08
5.09004e-08
1.04934e-07
2.00105e-07
3.54176e-07
5.8412e-07
9.01441e-07
1.30738e-06
1.78958e-06
2.32145e-06
2.86467e-06
3.37423e-06
3.8047e-06
4.11629e-06
4.27978e-06
4.27976e-06
4.11624e-06
3.80462e-06
3.37413e-06
2.86455e-06
2.32133e-06
1.78947e-06
1.30728e-06
9.01358e-07
5.84056e-07
3.5413e-07
2.00074e-07
1.04915e-07
5.08896e-08
2.27711e-08
9.38176e-09
3.55532e-09
1.239e-09
3.97252e-10
1.17308e-10
3.19525e-11
8.04249e-12
1.87442e-12
4.05388e-13
8.15391e-14
1.52869e-14
2.67725e-15
4.38944e-16
6.7513e-17
9.76108e-18
1.32917e-18
1.70779e-19
2.07409e-20
2.385e-21
2.60085e-22
2.69381e-23
2.65384e-24
2.49022e-25
2.22858e-26
1.90453e-27
1.55609e-28
1.21692e-29
9.1189e-31
6.5543e-32
4.52316e-33
2.99987e-34
1.91381e-35
1.17546e-36
6.95538e-38
3.75139e-39
5.00676e-38
9.15871e-37
1.52545e-35
2.44696e-34
3.77772e-33
5.60823e-32
7.99858e-31
1.0949e-29
1.43705e-28
1.80653e-27
2.17279e-26
2.49739e-25
2.7398e-24
2.86527e-23
2.8526e-22
2.69982e-21
2.42551e-20
2.06525e-19
1.66391e-18
1.26629e-17
9.08658e-17
6.13637e-16
3.89236e-15
2.31427e-14
1.28704e-13
6.6804e-13
3.22906e-12
1.45025e-11
6.03873e-11
2.32628e-10
8.27454e-10
2.71303e-09
8.18881e-09
2.27352e-08
5.80536e-08
1.36425e-07
2.95503e-07
5.91394e-07
1.09708e-06
1.89375e-06
3.05474e-06
4.62511e-06
6.60201e-06
8.92205e-06
1.14599e-05
1.40391e-05
1.64532e-05
1.84918e-05
1.99684e-05
2.07437e-05
2.07436e-05
1.99681e-05
1.84914e-05
1.64527e-05
1.40386e-05
1.14594e-05
8.92156e-06
6.60157e-06
4.62474e-06
3.05445e-06
1.89353e-06
1.09694e-06
5.91301e-07
2.95448e-07
1.36396e-07
5.80388e-08
2.27284e-08
8.18598e-09
2.71194e-09
8.27075e-10
2.32506e-10
6.03513e-11
1.44927e-11
3.22661e-12
6.67472e-13
1.28582e-13
2.31183e-14
3.88782e-15
6.1285e-16
9.07378e-17
1.26434e-17
1.66112e-18
2.06147e-19
2.4207e-20
2.69403e-21
2.846e-22
2.85813e-23
2.73247e-24
2.49022e-25
2.16613e-26
1.80061e-27
1.43203e-28
1.09083e-29
7.96698e-31
5.58472e-32
3.76095e-33
2.43546e-34
1.51787e-35
9.11073e-37
4.97915e-38
6.36163e-37
1.14817e-35
1.88468e-34
2.97845e-33
4.52864e-32
6.61883e-31
9.29018e-30
1.25104e-28
1.61463e-27
1.9951e-26
2.35753e-25
2.66096e-24
2.86527e-23
2.9395e-22
2.86926e-21
2.66089e-20
2.34093e-19
1.95058e-18
1.53683e-17
1.14292e-16
8.00808e-16
5.27631e-15
3.26248e-14
1.88918e-13
1.02227e-12
5.15777e-12
2.42096e-11
1.05479e-10
4.25636e-10
1.58747e-09
5.46203e-09
1.73103e-08
5.04755e-08
1.35351e-07
3.33854e-07
7.58327e-07
1.58949e-06
3.08357e-06
5.55745e-06
9.34525e-06
1.47296e-05
2.18618e-05
3.06906e-05
4.09203e-05
5.20102e-05
6.32169e-05
7.3674e-05
8.24942e-05
8.88817e-05
9.22365e-05
9.22362e-05
8.88808e-05
8.24929e-05
7.36723e-05
6.3215e-05
5.20081e-05
4.09184e-05
3.06888e-05
2.18603e-05
1.47284e-05
9.34435e-06
5.55682e-06
3.08316e-06
1.58924e-06
7.58184e-07
3.3378e-07
1.35316e-07
5.04602e-08
1.73042e-08
5.4598e-09
1.58673e-09
4.25408e-10
1.05414e-10
2.4193e-11
5.15379e-12
1.02139e-12
1.88736e-13
3.25901e-14
5.27011e-15
7.99771e-16
1.1413e-16
1.53445e-17
1.94729e-18
2.33664e-19
2.6556e-20
2.8631e-21
2.9327e-22
2.85813e-23
2.65384e-24
2.35078e-25
1.989e-26
1.60935e-27
1.24668e-28
9.2558e-30
6.59282e-31
4.50977e-32
2.9653e-33
1.87589e-34
1.14251e-35
6.32862e-37
7.73179e-36
1.37645e-34
2.22599e-33
3.46462e-32
5.18629e-31
7.45988e-30
1.03007e-28
1.36402e-27
1.7304e-26
2.1007e-25
2.43765e-24
2.70053e-23
2.8526e-22
2.86926e-21
2.74427e-20
2.49214e-19
2.14553e-18
1.74824e-17
1.34596e-16
9.77331e-16
6.68056e-15
4.2903e-14
2.58327e-13
1.45522e-12
7.65257e-12
3.74819e-11
1.70601e-10
7.19953e-10
2.81084e-09
1.01319e-08
3.36587e-08
1.02906e-07
2.893e-07
7.47729e-07
1.77798e-06
3.89595e-06
7.88787e-06
1.48089e-05
2.58921e-05
4.23604e-05
6.51667e-05
9.47195e-05
0.000130659
0.000171737
0.00021583
0.000260092
0.000301224
0.000335838
0.000360878
0.000374023
0.000374022
0.000360875
0.000335833
0.000301218
0.000260086
0.000215823
0.00017173
0.000130653
9.47141e-05
6.51622e-05
4.23569e-05
2.58896e-05
1.48071e-05
7.88679e-06
3.89531e-06
1.77764e-06
7.4756e-07
2.89224e-07
1.02874e-07
3.36466e-08
1.01277e-08
2.8095e-09
7.19562e-10
1.70496e-10
3.74559e-11
7.64659e-12
1.45395e-12
2.58076e-13
4.28569e-14
6.67265e-15
9.76058e-16
1.34404e-16
1.74552e-17
2.14189e-18
2.48756e-19
2.73881e-20
2.8631e-21
2.846e-22
2.69381e-23
2.43116e-24
2.0947e-25
1.72512e-26
1.35959e-27
1.0265e-28
7.43244e-30
5.16605e-31
3.45029e-32
2.21625e-33
1.37008e-34
7.6941e-36
8.97787e-35
1.57606e-33
2.51031e-32
3.84671e-31
5.66708e-30
8.0192e-29
1.08888e-27
1.41732e-26
1.76654e-25
2.10602e-24
2.39868e-23
2.60686e-22
2.69982e-21
2.66089e-20
2.49214e-19
2.2147e-18
1.8645e-17
1.48452e-16
1.11589e-15
7.90439e-15
5.26598e-14
3.29286e-13
1.92854e-12
1.05558e-11
5.38739e-11
2.5579e-10
1.12719e-09
4.59969e-09
1.73429e-08
6.0299e-08
1.93002e-07
5.6799e-07
1.53598e-06
3.81759e-06
8.73091e-06
1.84151e-05
3.59395e-05
6.51758e-05
0.000110365
0.000175414
0.000263046
0.000373989
0.00050638
0.000655475
0.000813746
0.000971358
0.00111702
0.00123915
0.00132731
0.00137353
0.00137353
0.0013273
0.00123914
0.001117
0.000971337
0.000813724
0.000655453
0.00050636
0.000373972
0.000263031
0.000175403
0.000110357
6.51695e-05
3.59354e-05
1.84126e-05
8.72949e-06
3.81685e-06
1.53563e-06
5.67838e-07
1.92941e-07
6.0277e-08
1.73356e-08
4.59746e-09
1.12657e-09
2.5563e-10
5.3836e-11
1.05475e-11
1.92684e-12
3.28964e-13
5.26028e-14
7.89497e-15
1.11443e-15
1.4824e-16
1.86159e-17
2.21094e-18
2.48756e-19
2.6556e-20
2.69403e-21
2.60085e-22
2.39274e-23
2.10043e-24
1.76152e-25
1.41302e-26
1.08537e-27
7.99164e-29
5.64639e-30
3.83182e-31
2.50002e-32
1.56923e-33
8.93681e-35
9.94721e-34
1.72145e-32
2.69956e-31
4.07128e-30
5.90074e-29
8.21116e-28
1.09596e-26
1.40158e-25
1.71555e-24
2.00749e-23
2.24306e-22
2.39011e-21
2.42551e-20
2.34093e-19
2.14553e-18
1.8645e-17
1.53378e-16
1.1923e-15
8.74265e-15
6.03541e-14
3.91476e-13
2.38083e-12
1.35464e-11
7.19465e-11
3.55853e-10
1.63521e-09
6.96446e-09
2.74284e-08
9.96694e-08
3.33518e-07
1.02609e-06
2.89939e-06
7.5224e-06
1.79313e-05
3.93397e-05
7.96668e-05
0.00014952
0.000261357
0.000427806
0.000659437
0.000962434
0.0013366
0.00177404
0.00225866
0.00276656
0.00326739
0.00372683
0.00411
0.00438554
0.00452971
0.0045297
0.00438552
0.00410997
0.00372678
0.00326734
0.0027665
0.0022586
0.00177399
0.00133655
0.000962389
0.000659401
0.000427777
0.000261336
0.000149506
7.96577e-05
3.93343e-05
1.79284e-05
7.52093e-06
2.89872e-06
1.02581e-06
3.33411e-07
9.96325e-08
2.74167e-08
6.96105e-09
1.6343e-09
3.55628e-10
7.18954e-11
1.35356e-11
2.37871e-12
3.91091e-13
6.02885e-14
8.7322e-15
1.19074e-15
1.53158e-16
1.86159e-17
2.14189e-18
2.33664e-19
2.4207e-20
2.385e-21
2.23791e-22
2.00254e-23
1.71103e-24
1.39763e-25
1.09266e-26
8.18486e-28
5.88064e-29
4.05656e-30
2.68921e-31
1.71447e-32
9.90462e-34
1.05024e-32
1.79121e-31
2.76462e-30
4.10195e-29
5.84659e-28
7.99741e-27
1.04879e-25
1.31721e-24
1.58257e-23
1.81677e-22
1.99035e-21
2.07819e-20
2.06525e-19
1.95058e-18
1.74824e-17
1.48452e-16
1.1923e-15
9.04118e-15
6.46085e-14
4.34232e-13
2.73917e-12
1.61822e-11
8.93292e-11
4.59688e-10
2.19988e-09
9.76635e-09
4.01238e-08
1.52187e-07
5.31734e-07
1.70814e-06
5.03757e-06
1.3628e-05
3.38205e-05
7.7083e-05
0.000161735
0.000313555
0.000564387
0.000948521
0.00149743
0.002234
0.0031674
0.00428922
0.00557136
0.00696546
0.00840431
0.00980559
0.0110782
0.0121313
0.0128844
0.013277
0.013277
0.0128843
0.0121313
0.0110781
0.00980546
0.00840418
0.00696532
0.00557122
0.00428909
0.00316728
0.00223391
0.00149735
0.000948462
0.000564344
0.000313526
0.000161717
7.70725e-05
3.3815e-05
1.36254e-05
5.0364e-06
1.70767e-06
5.31563e-07
1.5213e-07
4.01065e-08
9.76153e-09
2.19864e-09
4.59396e-10
8.92653e-11
1.61693e-11
2.73673e-12
4.33803e-13
6.45382e-14
9.03036e-15
1.19074e-15
1.4824e-16
1.74552e-17
1.94729e-18
2.06147e-19
2.07409e-20
1.98612e-21
1.81262e-22
1.5787e-23
1.31376e-24
1.04586e-25
7.97357e-27
5.82804e-28
4.08812e-29
2.75473e-30
1.78443e-31
1.04604e-32
1.0552e-31
1.77305e-30
2.69241e-29
3.92867e-28
5.50453e-27
7.39829e-26
9.52852e-25
1.1747e-23
1.38464e-22
1.55858e-21
1.67322e-20
1.7109e-19
1.66391e-18
1.53683e-17
1.34596e-16
1.11589e-15
8.74265e-15
6.46085e-14
4.49487e-13
2.93787e-12
1.80012e-11
1.03166e-10
5.51712e-10
2.74641e-09
1.26941e-08
5.43387e-08
2.14877e-07
7.83032e-07
2.62365e-06
8.06768e-06
2.27363e-05
5.86904e-05
0.000138832
0.000301464
0.00060279
0.00111495
0.00191853
0.00309101
0.00469376
0.00676075
0.00929029
0.0122401
0.0155253
0.0190189
0.0225563
0.025945
0.0289801
0.0314632
0.0332239
0.0341372
0.0341372
0.0332238
0.0314631
0.0289799
0.0259448
0.022556
0.0190186
0.015525
0.0122398
0.00929004
0.00676053
0.00469357
0.00309086
0.00191842
0.00111486
0.000602736
0.000301431
0.000138814
5.86809e-05
2.27318e-05
8.0658e-06
2.62293e-06
7.82778e-07
2.14796e-07
5.43151e-08
1.26878e-08
2.74486e-09
5.51359e-10
1.03092e-10
1.79867e-11
2.93525e-12
4.49043e-13
6.45382e-14
8.7322e-15
1.11443e-15
1.34404e-16
1.53445e-17
1.66112e-18
1.70779e-19
1.66994e-20
1.55529e-21
1.38151e-22
1.17185e-23
9.50381e-25
7.37781e-26
5.4883e-27
3.91635e-28
2.68344e-29
1.76678e-30
1.05126e-31
1.00739e-30
1.66714e-29
2.48979e-28
3.57145e-27
4.91699e-26
6.49057e-25
8.20596e-24
9.92547e-23
1.14719e-21
1.26543e-20
1.33044e-19
1.33139e-18
1.26629e-17
1.14292e-16
9.77331e-16
7.90439e-15
6.03541e-14
4.34232e-13
2.93787e-12
1.86513e-11
1.1086e-10
6.15449e-10
3.1834e-09
1.53022e-08
6.81753e-08
2.80771e-07
1.06604e-06
3.72214e-06
1.19237e-05
3.49796e-05
9.38581e-05
0.000230278
0.00051708
0.00106521
0.00202128
0.00355251
0.00582176
0.0089602
0.0130449
0.018085
0.0240151
0.0306935
0.0379037
0.0453597
0.0527193
0.0596086
0.0656543
0.0705173
0.0739214
0.075673
0.075673
0.0739213
0.0705171
0.065654
0.0596083
0.0527189
0.0453593
0.0379033
0.030693
0.0240146
0.0180846
0.0130446
0.00895988
0.0058215
0.00355232
0.00202114
0.00106511
0.000517024
0.000230247
9.38429e-05
3.49727e-05
1.19209e-05
3.7211e-06
1.06569e-06
2.80664e-07
6.81455e-08
1.52945e-08
3.18159e-09
6.15054e-10
1.1078e-10
1.86364e-11
2.93525e-12
4.33803e-13
6.02885e-14
7.89497e-15
9.76058e-16
1.1413e-16
1.26434e-17
1.32917e-18
1.32804e-19
1.26297e-20
1.14479e-21
9.90322e-23
8.18627e-24
6.47393e-25
4.90355e-26
3.56105e-27
2.48208e-28
1.66166e-29
1.00389e-30
9.12437e-30
1.4867e-28
2.18281e-27
3.0768e-26
4.1605e-25
5.3914e-24
6.6879e-23
7.93245e-22
8.98515e-21
9.70706e-20
9.98864e-19
9.77603e-18
9.08658e-17
8.00808e-16
6.68056e-15
5.26598e-14
3.91476e-13
2.73917e-12
1.80012e-11
1.1086e-10
6.38274e-10
3.42703e-09
1.71148e-08
7.92833e-08
3.39731e-07
1.34276e-06
4.88146e-06
1.62793e-05
4.96844e-05
0.000138513
0.000352344
0.000817823
0.00173464
0.00337303
0.00604353
0.0100442
0.0156046
0.0228449
0.0317582
0.0422113
0.0539532
0.0666236
0.0797636
0.092836
0.105265
0.116493
0.126029
0.133488
0.138598
0.141192
0.141192
0.138598
0.133488
0.126029
0.116493
0.105265
0.0928356
0.0797632
0.0666231
0.0539526
0.0422107
0.0317576
0.0228443
0.0156041
0.0100438
0.00604322
0.00337281
0.0017345
0.000817737
0.000352298
0.00013849
4.96747e-05
1.62755e-05
4.8801e-06
1.34231e-06
3.39601e-07
7.92485e-08
1.71062e-08
3.42508e-09
6.37864e-10
1.1078e-10
1.79867e-11
2.73673e-12
3.91091e-13
5.26028e-14
6.67265e-15
7.99771e-16
9.07378e-17
9.76108e-18
9.97212e-19
9.68973e-20
8.96788e-21
7.91606e-22
6.67309e-23
5.37863e-24
4.14997e-25
3.0685e-26
2.17655e-27
1.48217e-28
9.09493e-30
7.82788e-29
1.25535e-27
1.81128e-26
2.50774e-25
3.3291e-24
4.23302e-23
5.14945e-22
5.98606e-21
6.6412e-20
7.02264e-19
7.06801e-18
6.76074e-17
6.13637e-16
5.27631e-15
4.2903e-14
3.29286e-13
2.38083e-12
1.61822e-11
1.03166e-10
6.15449e-10
3.42703e-09
1.7765e-08
8.54913e-08
3.80827e-07
1.5656e-06
5.92191e-06
2.05476e-05
6.52142e-05
0.000188849
0.000498023
0.00119488
0.00260916
0.00519654
0.00947979
0.0159404
0.0249052
0.0364771
0.0505267
0.0667248
0.0845859
0.103501
0.122758
0.141572
0.159155
0.174814
0.188046
0.19858
0.206353
0.211433
0.213934
0.213934
0.211433
0.206353
0.198581
0.188046
0.174814
0.159155
0.141572
0.122757
0.103501
0.0845853
0.0667242
0.0505261
0.0364764
0.0249045
0.0159399
0.00947935
0.00519622
0.00260895
0.00119476
0.000497959
0.000188819
6.52014e-05
2.05427e-05
5.92025e-06
1.56509e-06
3.80682e-07
8.54536e-08
1.7756e-08
3.42508e-09
6.15054e-10
1.03092e-10
1.61693e-11
2.37871e-12
3.28964e-13
4.28569e-14
5.27011e-15
6.1285e-16
6.7513e-17
7.05732e-18
7.01116e-19
6.62948e-20
5.9747e-21
5.13896e-22
4.22378e-23
3.32133e-24
2.50149e-25
1.80647e-26
1.25181e-27
7.80448e-29
6.34996e-28
1.00194e-26
1.42007e-25
1.93034e-24
2.51464e-23
3.13583e-22
3.73903e-21
4.25756e-20
4.62376e-19
4.78261e-18
4.70482e-17
4.39502e-16
3.89236e-15
3.26248e-14
2.58327e-13
1.92854e-12
1.35464e-11
8.93292e-11
5.51712e-10
3.1834e-09
1.71148e-08
8.54913e-08
3.95591e-07
1.69039e-06
6.64858e-06
2.39905e-05
7.91576e-05
0.00023809
0.000651038
0.00161518
0.00363253
0.00741168
0.0137604
0.0233739
0.0366122
0.05339
0.0732159
0.0953188
0.118775
0.142585
0.165698
0.187042
0.205619
0.220687
0.23194
0.239571
0.244186
0.246606
0.247664
0.248014
0.248014
0.247664
0.246607
0.244187
0.239572
0.231941
0.220688
0.20562
0.187043
0.165698
0.142585
0.118775
0.0953184
0.0732153
0.0533893
0.0366115
0.0233732
0.0137599
0.00741126
0.00363225
0.00161501
0.000650954
0.000238052
7.91421e-05
2.39848e-05
6.64672e-06
1.68983e-06
3.9544e-07
8.54536e-08
1.71062e-08
3.18159e-09
5.51359e-10
8.92653e-11
1.35356e-11
1.92684e-12
2.58076e-13
3.25901e-14
3.88782e-15
4.38944e-16
4.69833e-17
4.77547e-18
4.61629e-19
4.25016e-20
3.73204e-21
3.12954e-22
2.50924e-23
1.92591e-24
1.4166e-25
9.99332e-27
6.33242e-28
4.86175e-27
7.54503e-26
1.05001e-24
1.40071e-23
1.7897e-22
2.18773e-21
2.55543e-20
2.84864e-19
3.02645e-18
3.06008e-17
2.94024e-16
2.68033e-15
2.31427e-14
1.88918e-13
1.45522e-12
1.05558e-11
7.19465e-11
4.59688e-10
2.74641e-09
1.53022e-08
7.92833e-08
3.80827e-07
1.69039e-06
6.9099e-06
2.59201e-05
8.88986e-05
0.000277755
0.000787831
0.00202254
0.00468936
0.00981162
0.0185498
0.0318162
0.0498588
0.0720905
0.09727
0.123857
0.150303
0.175173
0.197132
0.2149
0.227351
0.233806
0.234373
0.230051
0.222505
0.213657
0.205316
0.198935
0.195499
0.195499
0.198935
0.205317
0.213658
0.222506
0.230052
0.234374
0.233808
0.227352
0.214901
0.197133
0.175173
0.150303
0.123857
0.0972697
0.0720899
0.0498581
0.0318154
0.0185491
0.00981109
0.00468901
0.00202235
0.000787731
0.000277711
8.88812e-05
2.5914e-05
6.90796e-06
1.68983e-06
3.80682e-07
7.92485e-08
1.52945e-08
2.74486e-09
4.59396e-10
7.18954e-11
1.05475e-11
1.45395e-12
1.88736e-13
2.31183e-14
2.67725e-15
2.93656e-16
3.05592e-17
3.02199e-18
2.84411e-19
2.55105e-20
2.18371e-21
1.78618e-22
1.39776e-23
1.04765e-24
7.52693e-26
4.84937e-27
3.5065e-26
5.35037e-25
7.30794e-24
9.56279e-23
1.19783e-21
1.43456e-20
1.64064e-19
1.78938e-18
1.8586e-17
1.83578e-16
1.72156e-15
1.53028e-14
1.28704e-13
1.02227e-12
7.65257e-12
5.38739e-11
3.55853e-10
2.19988e-09
1.26941e-08
6.81753e-08
3.39731e-07
1.5656e-06
6.64858e-06
2.59201e-05
9.24019e-05
0.000299967
0.00088311
0.00234844
0.00562151
0.0120826
0.0233015
0.0403965
0.0632996
0.0904887
0.119483
0.147696
0.173007
0.19385
0.209008
0.21736
0.217887
0.210134
0.194813
0.174018
0.150703
0.127811
0.107662
0.0917678
0.0809229
0.0754531
0.075453
0.0809228
0.0917677
0.107662
0.127812
0.150704
0.174019
0.194815
0.210136
0.217889
0.217362
0.20901
0.193851
0.173008
0.147697
0.119483
0.0904884
0.0632989
0.0403957
0.0233007
0.012082
0.0056211
0.00234821
0.000882999
0.000299919
9.23838e-05
2.5914e-05
6.64672e-06
1.56509e-06
3.39601e-07
6.81455e-08
1.26878e-08
2.19864e-09
3.55628e-10
5.3836e-11
7.64659e-12
1.02139e-12
1.28582e-13
1.52869e-14
1.71961e-15
1.83351e-16
1.85611e-17
1.78679e-18
1.63808e-19
1.43215e-20
1.19567e-21
9.54432e-23
7.29285e-24
5.33858e-25
3.49829e-26
2.37757e-25
3.56557e-24
4.77782e-23
6.12988e-22
7.52369e-21
8.82342e-20
9.87437e-19
1.05306e-17
1.06867e-16
1.03041e-15
9.42405e-15
8.16154e-14
6.6804e-13
5.15777e-12
3.74819e-11
2.5579e-10
1.63521e-09
9.76635e-09
5.43387e-08
2.80771e-07
1.34276e-06
5.92191e-06
2.39905e-05