       -0.078258         0.123040         0.033353        -0.025113        -0.017159        -0.028373         0.022305         0.049379        -0.017251         0.014165        -0.023333         0.046127        -0.059397         0.032475        -0.033965         0.019502        -0.078345         0.054723         0.003477        -0.054104        -0.056444         0.050412        -0.043233         0.025847        -0.031920         0.069277        -0.073352         0.008911        -0.004501         0.045216        -0.038677         0.012519        -0.041569         0.011068        -0.002925        -0.039366         0.009859         0.032122        -0.062192        -0.051294         0.024239         0.000149         0.053712        -0.140611        -0.049470         0.047869         0.057526         0.027421        -0.004804        -0.009576        -0.031044        -0.059958        -0.010205        -0.006404         0.022504         0.019880        -0.022298         0.144560        -0.068843         0.040232        -0.139353         0.032161        -0.020421         0.031522        -0.009962         0.031196        -0.068916         0.046611        -0.100532         0.118112        -0.105314         0.025454        -0.024060        -0.047486         0.005702         0.024847        -0.057228        -0.019505         0.046623         0.026876        -0.062572        -0.036524         0.043482         0.018247        -0.039348        -0.046322        -0.091987         0.034235         0.022008         0.012332         0.081010        -0.015942        -0.040314        -0.011540        -0.042052         0.059594         0.114250         0.039353        -0.037063        -0.063350        -0.012858        -0.035324        -0.007039         0.026540         0.051573         0.035679         0.007582         0.005430         0.046954         0.011484        -0.007845        -0.069276        -0.053689        -0.073281        -0.040639         0.039410         0.032918         0.075638         0.048309         0.074932         0.046965         0.020907         0.085864         0.052158        -0.040536        -0.032203        -0.005856        -0.075023        -0.054049        -0.139123        -0.047848        -0.026841        -0.056504         0.007714         0.091142         0.002732         0.153855         0.108963         0.042263         0.050589         0.057699         0.108585         0.020176         0.043369         0.051335         0.057211        -0.003411        -0.077823        -0.004153        -0.049721        -0.102045        -0.061000        -0.091152        -0.021865        -0.024754        -0.021814        -0.024696        -0.012986        -0.059018        -0.000033        -0.003612        -0.029314        -0.175890        -0.087858        -0.123359         0.113872         0.113727         0.127105         0.000096         0.015042         0.007626         0.004290         0.113598         0.247994         0.371969         0.335469        -0.117312        -0.204759        -0.198897        -0.074536
       -0.060881         0.129401         0.003406         0.002487        -0.032018        -0.030082         0.010403         0.004594         0.052833         0.038681         0.081203         0.035383         0.002294         0.015008        -0.036114         0.042892        -0.048305         0.016265        -0.045801         0.094853        -0.031466        -0.053660        -0.018781         0.026458         0.020248        -0.002023        -0.031021        -0.191412         0.046793        -0.049794         0.015823        -0.000021        -0.054737         0.008310         0.043057        -0.049183        -0.005130         0.031728        -0.133043         0.084824         0.007521         0.004081         0.039339         0.009732        -0.126859        -0.030160         0.040853         0.009680         0.014783         0.026340        -0.016693        -0.082310        -0.057812         0.019832         0.036716         0.071462         0.010011         0.128333         0.034299        -0.001301         0.010031        -0.049417         0.090449         0.050726        -0.017686         0.053575        -0.012827        -0.003778         0.013611        -0.013218        -0.003740        -0.026312         0.011496         0.065813         0.063882         0.012988         0.070845        -0.072609         0.043524         0.060544        -0.033574         0.041093        -0.014592        -0.006666        -0.061856        -0.050403         0.034750         0.052149         0.051447        -0.018669         0.069804        -0.010788        -0.013296        -0.078563        -0.000041        -0.054030         0.023403         0.038168         0.026713        -0.003423         0.048308         0.160803        -0.011785         0.016767        -0.007653        -0.019008         0.023100        -0.016233        -0.045971        -0.024913        -0.034738        -0.090776         0.026167        -0.003717         0.083549         0.039294         0.052686         0.004354        -0.004490        -0.062515        -0.041301        -0.080594         0.014627         0.041678        -0.096891        -0.002920        -0.057175         0.004916         0.051495         0.032003        -0.017984         0.047652        -0.057866        -0.078810         0.036734         0.049493        -0.002639         0.011297        -0.008057        -0.004839         0.036843         0.073159         0.026325         0.064825         0.047810        -0.061556        -0.044436        -0.082437        -0.010391        -0.087392         0.036947         0.100321         0.015743         0.098582         0.015991         0.031856        -0.013988         0.011646        -0.035648        -0.075832        -0.159538         0.023915        -0.124495         0.071026         0.125441         0.145331         0.139330         0.080921        -0.063726        -0.127425        -0.108778         0.103464         0.162642        -0.008619         0.145734        -0.350175         0.155482        -0.161192         0.438109        -0.074536
       -0.037164         0.127375        -0.025931        -0.052069        -0.056770        -0.105671         0.029705         0.024981         0.011741         0.044987         0.015276        -0.013361        -0.049273        -0.029579         0.026401         0.003168         0.002971        -0.078084         0.056435         0.057929        -0.019404        -0.017264        -0.095683        -0.061972        -0.023839        -0.081678        -0.033907        -0.107953         0.113537        -0.076965         0.049940         0.059124        -0.025592        -0.005088         0.082806        -0.046010        -0.198886         0.048892        -0.055414         0.061648         0.076287        -0.047681        -0.012525         0.030658        -0.032448        -0.072758        -0.005591        -0.010648        -0.021719         0.035834         0.022638         0.045376        -0.054219        -0.004796        -0.092224         0.109899         0.022155         0.106565         0.038844         0.028721         0.044397         0.064716         0.048993         0.144392         0.042483         0.048869         0.140559        -0.085700        -0.022264        -0.060137        -0.016317         0.019397         0.010408        -0.017436         0.033100        -0.097542         0.109625         0.033961         0.024987         0.118452        -0.001924         0.039539         0.000815        -0.059716        -0.075022         0.047147         0.020508         0.017081        -0.038300         0.015524         0.024757        -0.092778        -0.038369         0.074878        -0.150219         0.003113         0.016607         0.103282         0.103836         0.020358         0.061433         0.023526        -0.053510        -0.009669        -0.103231        -0.051152        -0.033981         0.150238        -0.017994        -0.088126         0.080770        -0.020546        -0.090296         0.047099         0.046787         0.103917         0.101184         0.004356         0.030140         0.011710        -0.080526        -0.026422         0.065746        -0.059570         0.182180         0.093777        -0.053337         0.013448         0.035081        -0.062398         0.134811         0.041879         0.122715         0.062656        -0.015390         0.044792         0.021929         0.047467         0.083292        -0.036040        -0.005626        -0.077391         0.067439        -0.122039        -0.012505         0.108405        -0.067026        -0.004675         0.033850         0.024439        -0.016594         0.001002         0.010664         0.000099         0.124861        -0.059908         0.051521         0.085678         0.092018         0.007907         0.016507        -0.083376         0.065704        -0.024356        -0.118002        -0.121829        -0.099192         0.001497        -0.065020         0.012610         0.117892         0.052845        -0.085532         0.025995         0.140717        -0.000502        -0.366581         0.223165         0.077879        -0.074536
       -0.026936         0.130962        -0.025140        -0.048378        -0.087249        -0.092194         0.098675         0.046421         0.020027         0.070635        -0.019177         0.007068        -0.163823        -0.029184        -0.036028         0.042220         0.041821        -0.090470         0.030858         0.003156         0.075861         0.124297        -0.051400         0.072570        -0.084227         0.069801        -0.023011         0.070841         0.050459        -0.077753         0.002842        -0.056568         0.001280         0.084628         0.145401        -0.027531        -0.040612         0.019590        -0.010386        -0.022718         0.072303        -0.086906        -0.047305         0.018630         0.164053         0.063754         0.051828         0.084405         0.002631         0.084659         0.104951         0.149132         0.017064         0.144785         0.016401        -0.105440        -0.113933         0.077135        -0.019712        -0.026358        -0.010650         0.073659         0.007299        -0.086383        -0.001682        -0.083880         0.002853         0.047873         0.052632        -0.204637         0.079861        -0.040860         0.068316        -0.015168        -0.060674        -0.092900        -0.013304        -0.002046         0.020063        -0.083744         0.097629         0.015705         0.016721         0.064674         0.033351         0.096727         0.035838        -0.068498        -0.132278        -0.022837         0.042700        -0.061838        -0.037495         0.079222         0.056471         0.150246         0.038300        -0.113680        -0.029551         0.127105        -0.170245         0.073708        -0.072474        -0.059585         0.020424         0.094768        -0.118388        -0.098755        -0.047453        -0.120550         0.098370        -0.078993         0.043656        -0.023119         0.017155         0.049414         0.068960        -0.049025         0.116434        -0.056356        -0.084085         0.021965         0.008348         0.123704         0.002996         0.034021        -0.097294         0.129491        -0.129482         0.027591        -0.103552        -0.195727        -0.016526        -0.158956        -0.078918        -0.130013        -0.081041         0.029724         0.022556         0.001015         0.037258         0.166385        -0.031077         0.142726         0.057530         0.018126        -0.056102         0.091939         0.017224         0.044820        -0.028342         0.104199         0.005933         0.003820        -0.033437         0.072893        -0.021944         0.145408        -0.076915         0.084143        -0.010519        -0.013625        -0.035511         0.013689         0.020428        -0.027727         0.001101        -0.001427         0.019038        -0.006273        -0.019200         0.037826         0.010270         0.024355        -0.022842        -0.004794         0.024081        -0.005135        -0.015941        -0.074536
       -0.059433         0.126528         0.061186        -0.031678        -0.131124         0.104278         0.078936        -0.047005         0.001326         0.025481         0.034734        -0.035947        -0.030682        -0.049336        -0.098586        -0.050882         0.030994        -0.045287        -0.003407        -0.002691        -0.025367         0.137989         0.116960         0.047113         0.002298         0.109104        -0.013025         0.048718         0.022487        -0.049661         0.099745        -0.032801         0.034638        -0.009714         0.205970         0.088317         0.043513        -0.058714         0.013821         0.023306        -0.109143         0.000732         0.047836         0.063566         0.026512         0.076970         0.018892         0.056811        -0.061368         0.021028         0.089412         0.005952         0.071795         0.131854         0.177618        -0.105190        -0.115867         0.085979        -0.108476         0.011262         0.012455        -0.000957        -0.020918        -0.085582        -0.007038        -0.215080         0.060418        -0.083097        -0.016635        -0.144248         0.030712        -0.055356         0.009776         0.035627         0.073347         0.076917         0.059778        -0.066682        -0.145055        -0.027943        -0.003885         0.059284        -0.001263        -0.072752         0.028671         0.070657         0.143315         0.023862         0.148798        -0.023020         0.066602         0.068499        -0.148157         0.027742         0.005306         0.041552         0.118323         0.040162        -0.017166        -0.047690        -0.032387         0.060738         0.010307         0.165486        -0.027502        -0.086088        -0.012812         0.036245         0.017079        -0.008226         0.017265         0.096531        -0.167440        -0.036027         0.051411        -0.127049         0.030180         0.050409        -0.014430         0.171971        -0.051466         0.104318         0.110099        -0.184626        -0.082892        -0.085988        -0.041062        -0.065964         0.156061         0.066536         0.049963        -0.025119         0.090437         0.124410         0.027814         0.005082         0.101540        -0.098226        -0.022501        -0.029392        -0.013361        -0.097242        -0.010517        -0.012753        -0.026278        -0.032580         0.071209        -0.111702        -0.082099         0.008045         0.052090        -0.137407        -0.004164         0.034320         0.021314        -0.006364        -0.037152        -0.153939         0.025085        -0.091185        -0.018885         0.089258         0.061937         0.024893        -0.004793         0.043472        -0.025095         0.020914        -0.005751         0.023357        -0.025057        -0.049354        -0.035261        -0.026235         0.045912         0.019626        -0.002068         0.020890         0.022335        -0.074536
       -0.083384         0.117586         0.080202        -0.055639        -0.081492         0.075198         0.013779        -0.017483        -0.038934        -0.006921        -0.008870        -0.046612         0.057233        -0.058883        -0.063728        -0.090169        -0.067825        -0.006623         0.029010        -0.062159        -0.113082         0.025482         0.029114        -0.063591         0.016399         0.023719        -0.071621         0.124697         0.051226         0.041875         0.062204        -0.026724        -0.003596         0.004053         0.066638        -0.015273        -0.084004        -0.057109        -0.043931         0.004103        -0.036152        -0.036035        -0.013737        -0.084559        -0.032163         0.040155        -0.019478        -0.025250         0.003042        -0.028877         0.029609        -0.049953        -0.023431        -0.048983         0.084087        -0.015138         0.018336        -0.020320         0.006158        -0.070019        -0.058626         0.101538         0.033405         0.099833         0.102163        -0.048263         0.094740        -0.084127        -0.109252         0.081155        -0.099095         0.063799        -0.034724        -0.077598        -0.083951         0.044216         0.105165         0.034638         0.215248         0.165459        -0.113684         0.014108        -0.065586         0.006446        -0.008445         0.003005         0.013214        -0.009444        -0.021580         0.045577         0.069746         0.022227        -0.122156        -0.040995         0.097083         0.120782        -0.087319        -0.078451        -0.084663         0.054293         0.147323        -0.022074         0.028969         0.000915        -0.167528         0.101511         0.034408        -0.064058         0.030002         0.095150        -0.027909         0.079078         0.029561        -0.013779         0.013545         0.026302        -0.035678        -0.035566        -0.024670        -0.008363        -0.059116         0.002521        -0.106027         0.048213         0.021730         0.113583        -0.024586         0.101666        -0.002406         0.027767        -0.092764         0.041928         0.095698         0.028681         0.001754         0.018957        -0.012423         0.065760         0.008274        -0.019536         0.032153        -0.050848         0.167744        -0.069717         0.036749         0.170183         0.015692        -0.065979        -0.128995         0.053596        -0.091914         0.124492         0.067068        -0.001919         0.086412         0.106911        -0.100797         0.027135         0.058211        -0.029018         0.007146        -0.026482        -0.011643         0.200473         0.138509         0.004860        -0.051510        -0.066124        -0.061373        -0.128094        -0.152247         0.133592        -0.035606         0.064759        -0.241662         0.056486         0.075348        -0.116111        -0.127966        -0.074536
       -0.063819        -0.074914         0.001153        -0.067257         0.044788         0.001440         0.053143        -0.137059         0.026430         0.135601         0.041735         0.064977         0.044975         0.028090        -0.031591         0.139802         0.076984        -0.016179         0.090652         0.017035         0.115394         0.048777        -0.053523         0.030558         0.108461        -0.082589         0.026991        -0.040748        -0.038311         0.081305         0.051765        -0.101633        -0.031059        -0.080638         0.083221        -0.026877        -0.079498        -0.084287         0.050911         0.058537        -0.056628         0.013114        -0.027222        -0.064992         0.130580        -0.005285        -0.090364         0.097931         0.012858        -0.107888         0.003952         0.006495        -0.109132        -0.037419        -0.042571        -0.020746         0.056170         0.002568         0.091720        -0.104588        -0.127085        -0.030379        -0.040797         0.037059         0.010233         0.198951         0.022980        -0.097612         0.065903        -0.070130         0.058401        -0.032592         0.020763         0.031816        -0.214343        -0.003244        -0.050602        -0.132852         0.050637        -0.084755        -0.234946         0.032642        -0.053216         0.066723         0.131362         0.049719        -0.016230        -0.034648         0.210736        -0.027513         0.057249         0.078772        -0.110749         0.002807        -0.065380        -0.012916         0.055405        -0.066584         0.032843         0.048764        -0.063502         0.194907        -0.039197        -0.043729         0.188265         0.155521         0.021906         0.044066         0.078639        -0.064306        -0.022660        -0.033620         0.060142         0.072839         0.065448        -0.092857        -0.008851         0.097775        -0.063632        -0.037517         0.030484         0.007466        -0.070543        -0.081759         0.078550        -0.031605        -0.019370        -0.028092        -0.002698        -0.115652        -0.069669        -0.050550        -0.052010        -0.022278         0.069611         0.039306         0.004281        -0.038120         0.090013        -0.027125        -0.000375        -0.176694         0.180098        -0.021544         0.039611        -0.013800        -0.059346        -0.006373         0.052126        -0.086440        -0.024462        -0.019001        -0.026736        -0.055453         0.004923        -0.039396        -0.125795        -0.071199        -0.025858         0.102172         0.038582        -0.005922        -0.048750         0.064860        -0.123569        -0.001051        -0.024981        -0.069613         0.011134        -0.035281         0.038985        -0.030263        -0.004110        -0.056601         0.010755         0.041748         0.041548         0.007179         0.027241        -0.074536
       -0.020474        -0.069150         0.033605        -0.062319        -0.027299        -0.006502         0.094039        -0.206721         0.049330        -0.038411        -0.034708         0.132560        -0.132524        -0.092451         0.081916         0.012663         0.122633         0.012135        -0.072201        -0.088746        -0.024619         0.189295        -0.071568        -0.067580        -0.039655        -0.025858        -0.131811        -0.131294        -0.056126        -0.029528         0.050010         0.094745         0.058162         0.027362        -0.139113        -0.040912         0.209415        -0.059202         0.089633         0.033181        -0.005241         0.049787        -0.143806        -0.115190         0.139134         0.019691        -0.031664         0.084421        -0.021993        -0.159172         0.001795        -0.061804        -0.107197        -0.069121         0.007660         0.012990        -0.149391        -0.059888         0.020790         0.019533        -0.059851        -0.062997         0.098948        -0.031486         0.159476         0.039503         0.072156         0.116178        -0.219491         0.041435        -0.130658         0.097714         0.010875        -0.068911         0.036047        -0.127256        -0.054539         0.068773         0.106861         0.016788         0.122837         0.027650         0.001789         0.023520         0.082867         0.046232         0.059199         0.088337         0.063460         0.001688        -0.098917         0.070027        -0.084647        -0.016620        -0.020737        -0.026561         0.092741         0.060307        -0.075191         0.085304         0.059822         0.090486        -0.019134        -0.047035         0.032687        -0.092342         0.040761         0.037739        -0.120269        -0.078738         0.039745        -0.095411        -0.174122        -0.038654         0.019353         0.187754        -0.048436        -0.126297         0.008811        -0.079519        -0.088181        -0.127653         0.021263         0.015310        -0.015052        -0.115926         0.041968         0.035420         0.033065         0.031113        -0.028637         0.076214         0.048912        -0.073948         0.009110        -0.030596        -0.023155        -0.066081        -0.033990        -0.044435        -0.081250         0.002839        -0.017281         0.022732        -0.025170        -0.072645         0.071179        -0.057006        -0.027818        -0.038386        -0.004115        -0.043992         0.030695         0.024307         0.004527         0.022467         0.030225        -0.028140         0.012994        -0.029360         0.002902         0.018896         0.027497         0.029353         0.052728        -0.050587        -0.013480         0.010434         0.048731         0.016112         0.002245        -0.012100        -0.000089        -0.007053        -0.005541         0.008643        -0.011310         0.011686        -0.009734        -0.074536
       -0.065629        -0.062033         0.112786        -0.011082         0.012733         0.129626         0.045572        -0.115476         0.009781        -0.056205         0.094806         0.100551        -0.016681        -0.071097         0.078907         0.058172        -0.104765        -0.062998        -0.033338        -0.030883         0.013689         0.024413         0.034695         0.091516        -0.039069         0.005016        -0.165515         0.039501         0.039777         0.031107         0.000643         0.044283        -0.104673        -0.035923        -0.104807         0.059643        -0.020894        -0.012041        -0.019906        -0.098779        -0.040894        -0.097425        -0.091384         0.069071        -0.044938        -0.045580         0.182711        -0.092782        -0.071917         0.108379         0.071571         0.189287        -0.103773        -0.034795         0.085080         0.082028        -0.062966        -0.060259         0.064907         0.094440         0.097476         0.096593        -0.111565         0.045442         0.042952         0.008689        -0.002131        -0.155663         0.081145         0.110723         0.013309         0.024242         0.028868         0.148811         0.022611         0.017411         0.044736         0.003049         0.056689        -0.118843        -0.046790        -0.038486        -0.013561         0.107608         0.007822        -0.176093         0.093243        -0.064284         0.055828        -0.020408         0.054492         0.010415         0.044251        -0.087847         0.050988        -0.029846         0.094776        -0.037351         0.007726        -0.034188        -0.064185         0.040218        -0.019111        -0.025056        -0.107958        -0.001878        -0.007167         0.137383        -0.001910         0.043015         0.001628        -0.031680         0.005149        -0.014329         0.005442         0.039556        -0.079288        -0.029600        -0.129492         0.078075        -0.018966         0.000275         0.013444         0.041443        -0.001504        -0.146220        -0.070833        -0.008039         0.037016        -0.020995        -0.020079        -0.028698        -0.075706        -0.012262        -0.198991         0.017227        -0.045903         0.017180         0.037224        -0.118558         0.044470         0.113950         0.055217        -0.144301         0.029463        -0.052333        -0.002764         0.014521         0.041366        -0.117969        -0.054337        -0.131818        -0.125339         0.064957        -0.043391        -0.043258        -0.043288         0.201068         0.006236         0.122663         0.017763        -0.026846         0.200864        -0.008999         0.022449         0.038722         0.060748         0.055970        -0.138326         0.080096        -0.014145        -0.012903        -0.028345         0.085082        -0.041934         0.031104         0.038576         0.015759         0.013151        -0.074536