/*--------------------------------*- C++ -*----------------------------------*\
  =========                 |
  \\      /  F ield         | OpenFOAM: The Open Source CFD Toolbox
   \\    /   O peration     | Website:  https://openfoam.org
    \\  /    A nd           | Version:  dev
     \\/     M anipulation  |
\*---------------------------------------------------------------------------*/
FoamFile
{
    format      ascii;
    class       volScalarField;
    location    "400";
    object      p;
}
// * * * * * * * * * * * * * * * * * * * * * * * * * * * * * * * * * * * * * //

dimensions      [0 2 -2 0 0 0 0];

internalField   nonuniform List<scalar> 
24000
(
-0.0567669
-0.0572249
-0.057462
-0.0575044
-0.0573772
-0.0570692
-0.0565674
-0.0558512
-0.0548926
-0.053656
-0.0521001
-0.050179
-0.0478465
-0.0450602
-0.0417963
-0.0380681
-0.0339146
-0.0294285
-0.0247691
-0.0201294
-0.0156932
-0.0117915
-0.00842258
-0.00563375
-0.00340763
-0.00168861
-0.000401288
0.000520967
0.00114338
0.00153478
0.00175169
0.00184089
0.00183976
0.00177738
0.00167582
0.00155142
0.00141599
0.00127778
0.00114238
0.00101343
0.000893465
0.00078179
0.00067597
0.000584924
0.000502007
0.000427285
0.000359904
0.000298919
0.000243451
0.000192368
0.000144754
9.99694e-05
5.71076e-05
1.52792e-05
-2.63382e-05
-6.87302e-05
-0.000112012
-0.000159425
-0.000195328
-0.00039909
-0.0569473
-0.0573818
-0.057616
-0.0576584
-0.0575364
-0.0572399
-0.0567555
-0.0560629
-0.0551338
-0.0539324
-0.0524163
-0.0505373
-0.0482455
-0.0454936
-0.0422492
-0.0385169
-0.0343287
-0.0297728
-0.024996
-0.0202093
-0.0156969
-0.0117133
-0.00829877
-0.00549091
-0.00326572
-0.00155896
-0.000291701
0.000606609
0.00120669
0.0015781
0.0017782
0.0018539
0.00184238
0.00177234
0.00166541
0.0015375
0.0014
0.00126083
0.00112528
0.00099677
0.00087709
0.000765757
0.000662105
0.000572295
0.000490703
0.000417236
0.000351074
0.000291272
0.000236939
0.000186948
0.00014041
9.66766e-05
5.48432e-05
1.40322e-05
-2.65879e-05
-6.79684e-05
-0.000110405
-0.000155546
-0.000202083
-0.000368963
-0.05728
-0.0576829
-0.0579023
-0.0579417
-0.0578275
-0.0575499
-0.0570957
-0.0564447
-0.055569
-0.0544323
-0.0529904
-0.0511921
-0.0489813
-0.0463015
-0.0431043
-0.0393767
-0.0351338
-0.0304508
-0.0254632
-0.0204277
-0.0157323
-0.0116014
-0.00810432
-0.00526603
-0.00304722
-0.00136758
-0.000139617
0.000714696
0.00127504
0.00161257
0.00178553
0.0018407
0.00181458
0.00173492
0.00162237
0.00149189
0.00135409
0.0012162
0.00108299
0.000957358
0.000840266
0.000731834
0.000633588
0.000546882
0.000468492
0.000398049
0.000334699
0.000277517
0.000225615
0.000177894
0.000133521
9.186e-05
5.20166e-05
1.31517e-05
-2.55415e-05
-6.49727e-05
-0.000105531
-0.000148075
-0.000194736
-0.000350668
-0.0577611
-0.0581217
-0.0583187
-0.0583545
-0.0582522
-0.0580023
-0.0575922
-0.0570025
-0.0562054
-0.0551647
-0.0538344
-0.0521591
-0.0500746
-0.0475114
-0.0443999
-0.0406974
-0.0363899
-0.0315328
-0.0262453
-0.0208475
-0.0158427
-0.0114887
-0.00786454
-0.00497762
-0.00276276
-0.00111977
5.28684e-05
0.000847979
0.00135439
0.00164616
0.00178276
0.00181076
0.00176563
0.0016738
0.0015545
0.00142143
0.00128405
0.00114868
0.00101931
0.000898128
0.00078563
0.000682709
0.000591296
0.000509355
0.000435734
0.000369783
0.000310606
0.000257307
0.000208995
0.000164636
0.000123474
8.48668e-05
4.79634e-05
1.19784e-05
-2.38494e-05
-6.03686e-05
-9.80094e-05
-0.000137276
-0.000181066
-0.000324419
-0.0583649
-0.0586754
-0.0588432
-0.0588744
-0.0587867
-0.0585713
-0.0582164
-0.0577035
-0.0570061
-0.0560882
-0.054903
-0.0533911
-0.0514799
-0.0490847
-0.0461125
-0.0424798
-0.0381301
-0.0330871
-0.0274375
-0.0215543
-0.0161108
-0.0114575
-0.00766158
-0.00470448
-0.00248757
-0.000884482
0.000225126
0.000954773
0.00140158
0.0016436
0.00174164
0.00174183
0.00167832
0.00157586
0.00145201
0.00131891
0.00118471
0.00105464
0.0009318
0.000817667
0.000712732
0.000618261
0.000534881
0.00045974
0.00039263
0.000332728
0.000279133
0.000230991
0.000187418
0.000147494
0.000110546
7.59208e-05
4.28504e-05
1.06187e-05
-2.14711e-05
-5.41899e-05
-8.79664e-05
-0.000123176
-0.000162689
-0.000290728
-0.0590638
-0.0593178
-0.0594535
-0.0594785
-0.0594073
-0.0592309
-0.0589388
-0.0585141
-0.0579319
-0.0571577
-0.0561451
-0.0548322
-0.0531397
-0.0509682
-0.0481997
-0.0447086
-0.0403789
-0.0351827
-0.0291535
-0.0226671
-0.0166508
-0.0116215
-0.00760626
-0.00454798
-0.00231405
-0.000744878
0.000308712
0.00097843
0.00137099
0.00156896
0.00163443
0.00161292
0.00153706
0.00142978
0.00130684
0.00117877
0.00105235
0.000931729
0.000819155
0.000715598
0.000621658
0.000538246
0.000464589
0.000398385
0.000339575
0.000287288
0.000240664
0.000198911
0.000161197
0.000126736
9.49243e-05
6.51465e-05
3.67349e-05
9.06089e-06
-1.84884e-05
-4.65887e-05
-7.56388e-05
-0.000105972
-0.000140093
-0.000250143
-0.0598264
-0.0600198
-0.0601231
-0.0601408
-0.0600862
-0.0599508
-0.0597249
-0.0593938
-0.058935
-0.0583167
-0.0574942
-0.056406
-0.0549692
-0.0530739
-0.0505804
-0.047324
-0.0431232
-0.0378706
-0.0315238
-0.024355
-0.0176246
-0.0121376
-0.00784727
-0.00464585
-0.0023619
-0.000800178
0.000221403
0.000852588
0.00121035
0.00138189
0.00143055
0.00140127
0.00132525
0.00122372
0.00111077
0.000995482
0.000883459
0.000777916
0.00068045
0.00059177
0.000512465
0.000442682
0.000380948
0.000325857
0.00027716
0.000234049
0.000195752
0.000161561
0.000130761
0.000102709
7.68705e-05
5.27193e-05
2.97039e-05
7.30204e-06
-1.49951e-05
-3.77479e-05
-6.1303e-05
-8.59605e-05
-0.000113723
-0.000203297
-0.0606201
-0.0607528
-0.0608234
-0.0608343
-0.0607945
-0.0606989
-0.0605379
-0.0602991
-0.0599629
-0.0595008
-0.0588717
-0.0580167
-0.0568533
-0.0552675
-0.0531063
-0.050175
-0.0462366
-0.0410811
-0.0345951
-0.0267705
-0.0192034
-0.0131798
-0.00855733
-0.00515501
-0.00276663
-0.00116121
-0.000125521
0.000508036
0.000866752
0.00104266
0.00110072
0.00108573
0.00102797
0.000947432
0.000857027
0.000764827
0.000675646
0.000592115
0.000515471
0.00044646
0.000385552
0.000332177
0.000284867
0.000243054
0.00020626
0.000173826
0.000145126
0.000119587
9.66573e-05
7.58426e-05
5.67078e-05
3.88551e-05
2.1865e-05
5.34106e-06
-1.1102e-05
-2.78872e-05
-4.52831e-05
-6.35029e-05
-8.42163e-05
-0.000151043
-0.0614131
-0.0614883
-0.0615272
-0.0615314
-0.0615046
-0.0614439
-0.0613417
-0.0611871
-0.0609632
-0.0606449
-0.0601951
-0.0595592
-0.058658
-0.0573792
-0.0555669
-0.053014
-0.0494559
-0.044599
-0.0383013
-0.0301279
-0.0216353
-0.0149387
-0.00990954
-0.00622595
-0.00365384
-0.00192878
-0.000811039
-0.000115417
0.000295405
0.000518727
0.000621864
0.000650406
0.000634619
0.000594201
0.0005417
0.000484879
0.000428346
0.00037459
0.000324894
0.000280796
0.000242069
0.000207908
0.000177765
0.00015127
0.000128055
0.000107678
8.97191e-05
7.37943e-05
5.95466e-05
4.66519e-05
3.48249e-05
2.38134e-05
1.33509e-05
3.18335e-06
-6.93411e-06
-1.72688e-05
-2.79922e-05
-3.92092e-05
-5.21975e-05
-9.40429e-05
-0.0621771
-0.0622007
-0.0622103
-0.0622068
-0.0621906
-0.0621584
-0.0621049
-0.0620204
-0.0618901
-0.0616919
-0.0613927
-0.0609418
-0.0602645
-0.0592533
-0.0577564
-0.0555662
-0.0524117
-0.0479563
-0.0420175
-0.0340713
-0.0249923
-0.0175476
-0.0120508
-0.00799291
-0.00513203
-0.00318516
-0.00189524
-0.00106046
-0.000533163
-0.000209578
-1.85539e-05
8.78284e-05
0.000141303
0.000162568
0.000164919
0.000156744
0.000143231
0.000127478
0.000111576
9.68962e-05
8.39392e-05
7.2095e-05
6.15123e-05
5.22022e-05
4.40527e-05
3.69199e-05
3.06641e-05
2.5136e-05
2.02021e-05
1.57388e-05
1.16703e-05
7.90169e-06
4.32851e-06
8.55929e-07
-2.60671e-06
-6.15781e-06
-9.8626e-06
-1.37489e-05
-1.83702e-05
-3.3225e-05
-0.0628884
-0.0628684
-0.0628523
-0.0628404
-0.0628303
-0.0628192
-0.0628017
-0.0627695
-0.0627091
-0.0625999
-0.0624113
-0.0620964
-0.0615836
-0.0607712
-0.0595141
-0.0576134
-0.0548094
-0.0507722
-0.0452747
-0.038
-0.0289654
-0.0208271
-0.0148548
-0.0103905
-0.00717308
-0.00492204
-0.00337637
-0.00232694
-0.00161812
-0.00114008
-0.000817063
-0.000597559
-0.000446948
-0.000342174
-0.000267986
-0.000214354
-0.000174677
-0.00014452
-0.000120698
-0.000101474
-8.55876e-05
-7.24483e-05
-6.14107e-05
-5.20085e-05
-4.39183e-05
-3.69041e-05
-3.07686e-05
-2.53535e-05
-2.05333e-05
-1.62011e-05
-1.22218e-05
-8.51077e-06
-4.98919e-06
-1.57972e-06
1.79188e-06
5.2062e-06
8.71028e-06
1.23291e-05
1.64834e-05
2.9853e-05
-0.0635294
-0.0634749
-0.0634373
-0.0634166
-0.0634081
-0.0634091
-0.0634142
-0.0634151
-0.0633987
-0.0633454
-0.0632255
-0.0629926
-0.0625801
-0.0618914
-0.0607913
-0.059096
-0.0565682
-0.0529122
-0.0478728
-0.0412884
-0.0329081
-0.0245752
-0.0181934
-0.0133341
-0.00971488
-0.00709235
-0.00521512
-0.00388136
-0.00293098
-0.00224859
-0.00175312
-0.00138828
-0.00111523
-0.000907302
-0.000746135
-0.000619052
-0.000517233
-0.000434504
-0.00036643
-0.000309864
-0.000262331
-0.000222165
-0.000188021
-0.000158825
-0.000133712
-0.000111982
-9.30517e-05
-7.64111e-05
-6.16369e-05
-4.83634e-05
-3.62521e-05
-2.50071e-05
-1.43553e-05
-4.03866e-06
6.19016e-06
1.65995e-05
2.7359e-05
3.85849e-05
5.1509e-05
9.31069e-05
-0.0640889
-0.0640093
-0.0639548
-0.0639251
-0.0639141
-0.0639187
-0.0639333
-0.0639487
-0.0639514
-0.0639224
-0.0638313
-0.0636289
-0.0632537
-0.0626134
-0.0615821
-0.0599923
-0.0576331
-0.0542543
-0.0496189
-0.0436478
-0.0362079
-0.0282971
-0.0217081
-0.0165306
-0.0125341
-0.00952861
-0.00729093
-0.00563414
-0.00440418
-0.00348338
-0.00278653
-0.00225264
-0.00183827
-0.00151244
-0.00125303
-0.00104409
-0.000874053
-0.000734388
-0.000618715
-0.000522228
-0.000441207
-0.000372819
-0.000314797
-0.000265316
-0.00022289
-0.000186295
-0.000154507
-0.000126658
-0.000102007
-7.99118e-05
-5.97995e-05
-4.11591e-05
-2.35213e-05
-6.44389e-06
1.04969e-05
2.7761e-05
4.56465e-05
6.44152e-05
8.57916e-05
0.000154694
-0.064562
-0.0644659
-0.064399
-0.0643606
-0.0643437
-0.064345
-0.0643579
-0.0643719
-0.0643729
-0.0643424
-0.064245
-0.064032
-0.0636444
-0.0629944
-0.0619655
-0.0604075
-0.0581376
-0.0549504
-0.0506476
-0.0451841
-0.0385517
-0.0313527
-0.0249152
-0.0196052
-0.0153505
-0.0120204
-0.00944583
-0.00746658
-0.00594726
-0.0047748
-0.0038633
-0.0031486
-0.00258318
-0.00213182
-0.00176837
-0.00147333
-0.00123203
-0.00103333
-0.000868676
-0.000731467
-0.000616518
-0.000519754
-0.000437904
-0.000368325
-0.000308858
-0.000257723
-0.000213434
-0.00017474
-0.000140574
-0.000110013
-8.22465e-05
-5.6548e-05
-3.22539e-05
-8.74077e-06
1.45883e-05
3.83803e-05
6.30573e-05
8.90382e-05
0.000118406
0.000213139
-0.064949
-0.0648439
-0.0647684
-0.064722
-0.064697
-0.0646898
-0.0646926
-0.0646935
-0.0646784
-0.0646268
-0.0644968
-0.064245
-0.0638113
-0.0631124
-0.0620414
-0.0604661
-0.0582319
-0.0551752
-0.0511457
-0.0461239
-0.040172
-0.0336894
-0.0275935
-0.0223169
-0.0179231
-0.0143587
-0.011507
-0.00924448
-0.00745596
-0.00604225
-0.004921
-0.00402767
-0.00331217
-0.0027358
-0.00226878
-0.00188822
-0.00157638
-0.00131951
-0.00110685
-0.000929957
-0.000782119
-0.000658005
-0.000553322
-0.000464591
-0.000388972
-0.000324125
-0.000268103
-0.000219272
-0.000176247
-0.000137831
-0.000102981
-7.07638e-05
-4.03318e-05
-1.08896e-05
1.83215e-05
4.8122e-05
7.90377e-05
0.000111597
0.000148457
0.000267243
-0.0652543
-0.0651459
-0.0650652
-0.0650116
-0.0649776
-0.0649588
-0.0649465
-0.0649272
-0.0648879
-0.0648021
-0.0646262
-0.0643201
-0.0638225
-0.0630548
-0.0619197
-0.0603018
-0.0580726
-0.0551048
-0.0512911
-0.0466347
-0.0412299
-0.0353665
-0.0296704
-0.0245432
-0.0201057
-0.0164002
-0.0133427
-0.0108518
-0.00883626
-0.00720972
-0.00589877
-0.00484143
-0.00398687
-0.003294
-0.00273021
-0.00226968
-0.00189196
-0.00158089
-0.00132364
-0.00111
-0.000931838
-0.000782612
-0.000657054
-0.000550891
-0.000460632
-0.000383405
-0.000316831
-0.000258916
-0.000207976
-0.000162562
-0.000121416
-8.34158e-05
-4.75454e-05
-1.28545e-05
2.156e-05
5.66743e-05
9.30952e-05
0.000131466
0.000174908
0.000315502
-0.0654848
-0.0653769
-0.0652935
-0.0652339
-0.065191
-0.0651599
-0.0651307
-0.0650898
-0.0650224
-0.0648969
-0.0646732
-0.064309
-0.0637439
-0.0629038
-0.0617002
-0.0600325
-0.0577946
-0.0548888
-0.0512417
-0.0468758
-0.0418958
-0.0365258
-0.0312027
-0.0262643
-0.0218504
-0.0180674
-0.0148707
-0.0122074
-0.0100127
-0.0082139
-0.00674386
-0.00554638
-0.00457197
-0.00377802
-0.00312993
-0.00259959
-0.00216435
-0.00180597
-0.00150986
-0.00126429
-0.00105983
-0.000888891
-0.000745345
-0.000624207
-0.000521411
-0.000433617
-0.000358062
-0.000292437
-0.000234795
-0.00018347
-0.000137014
-9.41449e-05
-5.37008e-05
-1.45995e-05
2.41832e-05
6.37588e-05
0.000104781
0.000148094
0.000196923
0.000356537
-0.0656486
-0.0655432
-0.0654586
-0.0653942
-0.0653435
-0.0653013
-0.0652564
-0.0651962
-0.0651019
-0.0649402
-0.0646734
-0.064257
-0.0636321
-0.0627282
-0.0614642
-0.0597514
-0.0575011
-0.054638
-0.0511126
-0.046962
-0.0422916
-0.0372836
-0.0322603
-0.0275007
-0.0231471
-0.0193222
-0.0160409
-0.0132589
-0.0109328
-0.00900527
-0.00741453
-0.00610731
-0.00503829
-0.00416409
-0.00344875
-0.00286257
-0.00238124
-0.00198496
-0.00165774
-0.00138661
-0.00116115
-0.000972912
-0.000815057
-0.000682035
-0.000569312
-0.000473169
-0.000390533
-0.00031884
-0.000255934
-0.000199972
-0.000149358
-0.000102679
-5.86608e-05
-1.61167e-05
2.60705e-05
6.91222e-05
0.000113684
0.000161045
0.000213643
0.000389084
-0.0657527
-0.0656498
-0.065565
-0.0654973
-0.0654412
-0.0653908
-0.0653341
-0.0652598
-0.0651455
-0.064957
-0.0646589
-0.0642047
-0.0635365
-0.0625869
-0.0612796
-0.0595343
-0.0572742
-0.0544382
-0.0509922
-0.0469826
-0.0425123
-0.0377376
-0.0329168
-0.028292
-0.0240036
-0.0201497
-0.0168222
-0.0139665
-0.0115555
-0.0095425
-0.0078712
-0.00649029
-0.00535658
-0.00442747
-0.00366604
-0.00304158
-0.00252866
-0.00210644
-0.00175793
-0.00146937
-0.0012296
-0.0010296
-0.00086204
-0.000720971
-0.000601541
-0.000499766
-0.000412359
-0.000336584
-0.000270137
-0.000211057
-0.000157645
-0.000108403
-6.19782e-05
-1.71156e-05
2.73592e-05
7.2743e-05
0.000119604
0.000170145
0.000223009
0.00041202
-0.0658048
-0.0657019
-0.0656173
-0.0655476
-0.0654882
-0.0654325
-0.0653684
-0.0652849
-0.0651584
-0.0649534
-0.064636
-0.0641587
-0.0634646
-0.0624877
-0.0611549
-0.0593904
-0.0571234
-0.0543009
-0.0508951
-0.0469577
-0.0425898
-0.0379335
-0.0332187
-0.0286743
-0.0244397
-0.0205697
-0.0172297
-0.0143424
-0.0118922
-0.00983753
-0.00812573
-0.00670678
-0.00553866
-0.00457984
-0.00379303
-0.00314718
-0.00261639
-0.00217932
-0.00181853
-0.00151981
-0.00127166
-0.00106472
-0.000891405
-0.000745547
-0.000622109
-0.00051696
-0.000426688
-0.000348457
-0.000279878
-0.000218922
-0.000163831
-0.000113056
-6.52034e-05
-1.89809e-05
2.67981e-05
7.349e-05
0.000121476
0.000174766
0.000215947
0.000447101
-0.0568139
-0.0572583
-0.0574971
-0.0575398
-0.0574146
-0.057111
-0.0566154
-0.0559073
-0.0549578
-0.053731
-0.0521839
-0.0502684
-0.0479349
-0.0451373
-0.0418457
-0.0380686
-0.0338421
-0.0292616
-0.0244801
-0.0197159
-0.0152321
-0.0112925
-0.00792512
-0.00516341
-0.00298106
-0.00131261
-7.87354e-05
0.000790511
0.00136543
0.00171518
0.00189666
0.00195634
0.00193103
0.0018491
0.00173191
0.00159513
0.00144996
0.00130416
0.00116289
0.00102935
0.000904825
0.000788934
0.000682941
0.000590198
0.000506087
0.0004304
0.000362263
0.000300698
0.000244763
0.000193302
0.000145418
0.000100436
5.73996e-05
1.54144e-05
-2.63719e-05
-6.89339e-05
-0.000112581
-0.000158988
-0.000206888
-0.000378487
-0.0569969
-0.0574166
-0.0576524
-0.0576955
-0.0575756
-0.057284
-0.0568066
-0.0561231
-0.0552048
-0.0540153
-0.0525106
-0.0506406
-0.0483516
-0.0455918
-0.042322
-0.0385399
-0.0342724
-0.0296072
-0.0246873
-0.0197652
-0.015184
-0.0111613
-0.00775126
-0.00497713
-0.00280341
-0.00115515
5.16149e-05
0.000891399
0.00143952
0.00176594
0.00192815
0.00197258
0.00193565
0.00184523
0.00172213
0.00158148
0.00143402
0.0012871
0.00114555
0.00101222
0.000887992
0.000773028
0.000669264
0.000577553
0.000494721
0.000420299
0.000353394
0.000293028
0.000238231
0.000187875
0.000141084
9.71576e-05
5.5155e-05
1.41916e-05
-2.65941e-05
-6.81456e-05
-0.000110789
-0.000155798
-0.00021399
-0.00034559
-0.0573316
-0.0577198
-0.0579403
-0.0579808
-0.0578693
-0.0575974
-0.0571517
-0.0565119
-0.05565
-0.0545291
-0.053104
-0.0513211
-0.0491206
-0.0464404
-0.0432239
-0.0394474
-0.0351147
-0.0302977
-0.0251249
-0.0199156
-0.0151181
-0.0109437
-0.00745774
-0.0046667
-0.00251477
-0.000909111
0.000244674
0.00103002
0.00153008
0.00181636
0.00194682
0.00196739
0.00191347
0.00181174
0.00168181
0.00153776
0.00138939
0.00124332
0.00110372
0.000972875
0.000851343
0.000740037
0.000640881
0.000552294
0.000472604
0.000401171
0.000337059
0.0002793
0.00022691
0.000178817
0.000134202
9.2337e-05
5.23201e-05
1.32996e-05
-2.55609e-05
-6.51719e-05
-0.000105886
-0.000148487
-0.00020628
-0.000327886
-0.0578152
-0.0581616
-0.058359
-0.0583961
-0.0582972
-0.0580544
-0.0576548
-0.0570793
-0.0563003
-0.0552814
-0.0539759
-0.0523264
-0.0502648
-0.0477147
-0.0445965
-0.0408505
-0.0364422
-0.0314188
-0.0258797
-0.0202301
-0.0150718
-0.0106666
-0.00706612
-0.0042487
-0.00212573
-0.000581025
0.000496419
0.00120672
0.00164049
0.00187182
0.00195925
0.00194788
0.00187161
0.00175539
0.00161713
0.00146939
0.0013207
0.0011766
0.00104041
0.000913737
0.000797062
0.000691728
0.000598621
0.000514884
0.000439926
0.000372963
0.000313013
0.000259126
0.000210315
0.000165588
0.000124187
8.53691e-05
4.82888e-05
1.21462e-05
-2.38485e-05
-6.0551e-05
-9.83317e-05
-0.000137703
-0.000191761
-0.000303539
-0.0584222
-0.0587189
-0.0588866
-0.0589193
-0.0588361
-0.0586294
-0.0582875
-0.0577926
-0.0571188
-0.0562307
-0.0550813
-0.0536099
-0.0517403
-0.0493801
-0.046423
-0.0427633
-0.0383095
-0.0330667
-0.0270728
-0.0208025
-0.0151251
-0.0104107
-0.0066574
-0.0038018
-0.00171266
-0.000242123
0.000745463
0.00136902
0.00172706
0.00189681
0.00193717
0.00189198
0.00179316
0.00166342
0.00151863
0.0013695
0.00122304
0.00108357
0.000953456
0.000833705
0.000724789
0.0006278
0.000542309
0.00046541
0.000396914
0.000335969
0.000281584
0.000232837
0.000188763
0.000148474
0.000111279
7.64402e-05
4.31907e-05
1.08005e-05
-2.14539e-05
-5.43532e-05
-8.82634e-05
-0.0001236
-0.000172304
-0.000272126
-0.0591246
-0.0593652
-0.0595002
-0.0595269
-0.0594613
-0.0592954
-0.0590191
-0.0586167
-0.0580646
-0.0573297
-0.0563662
-0.0551127
-0.0534868
-0.051382
-0.0486644
-0.0451799
-0.0407624
-0.0353468
-0.0288587
-0.0217705
-0.0153956
-0.0102942
-0.00634711
-0.00343392
-0.00137529
2.01013e-05
0.000918324
0.00145617
0.0017409
0.00185286
0.00185093
0.00177728
0.00166145
0.00152372
0.00137767
0.0012321
0.00109243
0.000961743
0.000841518
0.000732289
0.000634357
0.000548069
0.000472119
0.000404189
0.000343954
0.000290591
0.00024316
0.000200785
0.00016257
0.000127748
9.56798e-05
6.56848e-05
3.70921e-05
9.259e-06
-1.84518e-05
-4.6727e-05
-7.59084e-05
-0.00010638
-0.000148433
-0.000234274
-0.0598905
-0.0600711
-0.0601729
-0.0601928
-0.0601447
-0.0600216
-0.0598145
-0.0595101
-0.0590881
-0.0585191
-0.0577608
-0.0567536
-0.0554142
-0.0536275
-0.0512388
-0.0480499
-0.0438154
-0.0383614
-0.0314559
-0.0233695
-0.0160719
-0.0104957
-0.00630342
-0.00329757
-0.00124466
9.64089e-05
0.000925199
0.00139622
0.00162566
0.00169671
0.00166792
0.00157961
0.00145893
0.00132379
0.00118561
0.00105141
0.000925195
0.000808998
0.000703595
0.000609149
0.000525642
0.00045266
0.000388597
0.000331763
0.000281611
0.000237405
0.000198288
0.000163463
0.000132165
0.000103753
7.7648e-05
5.32766e-05
3.00788e-05
7.51803e-06
-1.49366e-05
-3.78568e-05
-6.15412e-05
-8.63398e-05
-0.000120602
-0.000190593
-0.060687
-0.0608076
-0.0608759
-0.0608894
-0.0608572
-0.0607753
-0.0606357
-0.0604276
-0.0601344
-0.0597311
-0.0591804
-0.058428
-0.0573942
-0.055964
-0.0539738
-0.0511978
-0.0473267
-0.0420523
-0.0350092
-0.0258726
-0.0173738
-0.0112284
-0.00673921
-0.00358069
-0.00147788
-0.000140243
0.000666029
0.00111212
0.00132307
0.001385
0.0013564
0.00127616
0.00116958
0.00105266
0.000935202
0.000822891
0.000718748
0.000624107
0.00053932
0.000464375
0.00039899
0.000342246
0.000292646
0.000249028
0.000210757
0.000177217
0.000147687
0.000121511
9.80929e-05
7.69118e-05
5.75057e-05
3.94311e-05
2.2258e-05
5.5759e-06
-1.102e-05
-2.79639e-05
-4.54863e-05
-6.38503e-05
-8.94795e-05
-0.000141864
-0.0614822
-0.0615459
-0.0615819
-0.0615888
-0.0615704
-0.0615246
-0.0614458
-0.061325
-0.0611488
-0.0608965
-0.0605363
-0.0600199
-0.0592742
-0.0581907
-0.0566092
-0.0543007
-0.0509378
-0.0461237
-0.0395155
-0.0298257
-0.0197538
-0.0127705
-0.00788882
-0.00447817
-0.00223031
-0.000810898
4.80853e-05
0.000534526
0.000782247
0.000881138
0.000890612
0.000849273
0.000781637
0.00070287
0.000622038
0.000544286
0.000472285
0.000407175
0.000349311
0.000298945
0.000255599
0.000218134
0.000185626
0.000157258
0.000132568
0.000111084
9.22912e-05
7.57336e-05
6.10029e-05
4.77415e-05
3.56395e-05
2.44067e-05
1.37616e-05
3.43719e-06
-6.82774e-06
-1.73118e-05
-2.81628e-05
-3.95343e-05
-5.568e-05
-8.86862e-05
-0.0622474
-0.0622603
-0.0622664
-0.0622657
-0.0622582
-0.0622417
-0.0622126
-0.0621637
-0.062084
-0.0619563
-0.061753
-0.0614313
-0.0609251
-0.060134
-0.0589075
-0.0570248
-0.0541663
-0.0498927
-0.0438672
-0.0346768
-0.023562
-0.0154292
-0.0100162
-0.00620362
-0.00365926
-0.00202703
-0.00100636
-0.000389812
-3.2707e-05
0.000161482
0.000255536
0.000289906
0.000290195
0.000272295
0.000245837
0.000216477
0.000187385
0.000160208
0.000135927
0.000115237
9.7562e-05
8.24059e-05
6.93742e-05
5.81523e-05
4.85469e-05
4.032e-05
3.32317e-05
2.70742e-05
2.16595e-05
1.68426e-05
1.25001e-05
8.50994e-06
4.75501e-06
1.12757e-06
-2.47635e-06
-6.16623e-06
-1.00038e-05
-1.40451e-05
-1.99316e-05
-3.19624e-05
-0.0629589
-0.0629291
-0.062909
-0.0628999
-0.0628986
-0.0629032
-0.0629103
-0.062914
-0.0629047
-0.062867
-0.0627758
-0.0625913
-0.0622522
-0.0616648
-0.0606876
-0.0591133
-0.0566447
-0.0528638
-0.0474169
-0.0394705
-0.0284447
-0.0189964
-0.0129676
-0.00868733
-0.00574557
-0.00378932
-0.00250353
-0.00166675
-0.001125
-0.000774387
-0.000546984
-0.000398509
-0.000300348
-0.000234181
-0.000188369
-0.000155559
-0.00013111
-0.000112077
-9.65364e-05
-8.3344e-05
-7.20008e-05
-6.21921e-05
-5.36582e-05
-4.61457e-05
-3.94823e-05
-3.35413e-05
-2.82166e-05
-2.34185e-05
-1.9071e-05
-1.50879e-05
-1.13839e-05
-7.89305e-06
-4.55095e-06
-1.29328e-06
1.94424e-06
5.23134e-06
8.59506e-06
1.20639e-05
1.69218e-05
2.68685e-05
-0.0635992
-0.0635357
-0.0634938
-0.0634757
-0.0634758
-0.0634921
-0.0635212
-0.0635571
-0.0635905
-0.0636063
-0.0635798
-0.0634721
-0.0632256
-0.0627518
-0.0619201
-0.0605417
-0.0583527
-0.0549886
-0.0500788
-0.0431888
-0.0332932
-0.0233792
-0.0167161
-0.0119061
-0.00846493
-0.00607142
-0.00441506
-0.00326862
-0.00246913
-0.00190381
-0.00149716
-0.00119881
-0.00097516
-0.00080374
-0.000669497
-0.000562258
-0.000475069
-0.000403113
-0.000342976
-0.000292215
-0.000249045
-0.000212144
-0.000180453
-0.000153102
-0.000129374
-0.000108688
-9.05394e-05
-7.44945e-05
-6.0178e-05
-4.72536e-05
-3.54148e-05
-2.4386e-05
-1.39099e-05
-3.74101e-06
6.36159e-06
1.66555e-05
2.72689e-05
3.83438e-05
5.39509e-05
8.58805e-05
-0.0641572
-0.0640693
-0.0640103
-0.063983
-0.0639801
-0.0639993
-0.0640365
-0.0640851
-0.064135
-0.0641704
-0.0641639
-0.0640762
-0.0638514
-0.0634038
-0.0626106
-0.0612995
-0.0592375
-0.0561204
-0.0516158
-0.0454904
-0.0371556
-0.0279184
-0.0207778
-0.0154898
-0.01155
-0.00868587
-0.00660875
-0.00509979
-0.00399425
-0.00317317
-0.00255365
-0.00207863
-0.00170857
-0.00141587
-0.00118112
-0.000990498
-0.000834049
-0.000704459
-0.000596266
-0.000505331
-0.000428467
-0.00036319
-0.000307503
-0.00025978
-0.000218678
-0.000183084
-0.000152053
-0.00012478
-0.000100571
-7.88154e-05
-5.89683e-05
-4.05385e-05
-2.30717e-05
-6.13733e-06
1.06853e-05
2.78458e-05
4.55847e-05
6.41931e-05
9.01763e-05
0.000143349
-0.0646281
-0.0645245
-0.064453
-0.0644167
-0.0644072
-0.064422
-0.0644557
-0.0645006
-0.0645454
-0.064572
-0.0645487
-0.0644372
-0.0641802
-0.0636949
-0.0628661
-0.0615383
-0.0595098
-0.0565325
-0.0523349
-0.0467615
-0.0395771
-0.0314527
-0.0244424
-0.0189566
-0.014662
-0.0113884
-0.00890926
-0.00703114
-0.00560378
-0.00450893
-0.00366008
-0.00299445
-0.00246681
-0.00204421
-0.00170251
-0.00142383
-0.00119481
-0.0010053
-0.000847541
-0.000715495
-0.000604427
-0.00051058
-0.000430928
-0.000363008
-0.000304797
-0.000254613
-0.000211048
-0.000172906
-0.000139165
-0.000108932
-8.14225e-05
-5.59286e-05
-3.18008e-05
-8.42611e-06
1.47927e-05
3.84926e-05
6.30259e-05
8.88348e-05
0.000124619
0.000197893
-0.0650126
-0.0649006
-0.0648206
-0.0647759
-0.0647577
-0.0647626
-0.0647844
-0.0648136
-0.0648377
-0.0648345
-0.0647697
-0.0646045
-0.0642805
-0.0637171
-0.0628075
-0.0614135
-0.0593644
-0.0564643
-0.0525111
-0.0474075
-0.0411055
-0.0340132
-0.0274371
-0.0219673
-0.0174854
-0.0139198
-0.0111122
-0.00890897
-0.00718182
-0.00582385
-0.00474999
-0.00389533
-0.00321056
-0.00265818
-0.00220969
-0.00184331
-0.00154228
-0.00129362
-0.00108718
-0.000914995
-0.000770725
-0.000649312
-0.000546678
-0.000459503
-0.000385067
-0.00032112
-0.000265786
-0.000217483
-0.000174865
-0.000136765
-0.000102164
-7.01457e-05
-3.98753e-05
-1.05671e-05
1.85416e-05
4.82615e-05
7.90405e-05
0.000111435
0.000156343
0.000248339
-0.0653153
-0.0652004
-0.0651154
-0.0650632
-0.0650352
-0.0650274
-0.0650322
-0.065039
-0.0650334
-0.0649878
-0.064869
-0.0646353
-0.0642278
-0.0635691
-0.0625607
-0.0610812
-0.0589888
-0.056132
-0.0523686
-0.0476494
-0.042015
-0.0357559
-0.0296983
-0.0243859
-0.0198523
-0.0161139
-0.0130672
-0.0106044
-0.00862475
-0.00703561
-0.00575859
-0.00473035
-0.00389982
-0.00322633
-0.0026779
-0.00222939
-0.00186101
-0.00155715
-0.00130544
-0.00109605
-0.000921134
-0.000774393
-0.000650735
-0.000546024
-0.000456876
-0.0003805
-0.00031458
-0.00025717
-0.000206619
-0.000161511
-0.000120605
-8.27987e-05
-4.70856e-05
-1.25246e-05
2.17945e-05
5.68377e-05
9.31284e-05
0.000131329
0.000184324
0.000293344
-0.0655434
-0.0654294
-0.0653419
-0.0652834
-0.0652458
-0.0652245
-0.0652109
-0.0651932
-0.0651546
-0.0650641
-0.064889
-0.0645851
-0.0640936
-0.0633404
-0.0622352
-0.0606717
-0.0585333
-0.0557043
-0.0520883
-0.0476732
-0.0425388
-0.0369125
-0.03133
-0.0262284
-0.0217224
-0.0178945
-0.0146863
-0.0120305
-0.00985371
-0.00807734
-0.00663031
-0.00545409
-0.00449799
-0.00371938
-0.00308383
-0.00256357
-0.00213632
-0.00178423
-0.00149303
-0.00125128
-0.00104977
-0.000881118
-0.000739332
-0.00061955
-0.000517798
-0.000430809
-0.000355876
-0.000290733
-0.000233466
-0.000182435
-0.000136213
-9.35313e-05
-5.32403e-05
-1.42652e-05
2.44287e-05
6.39397e-05
0.000104842
0.000147963
0.000207663
0.000331609
-0.0657051
-0.065594
-0.0655054
-0.0654419
-0.065396
-0.0653626
-0.0653321
-0.0652923
-0.0652231
-0.0650928
-0.0648677
-0.0645023
-0.0639382
-0.0631046
-0.061918
-0.0602847
-0.0581074
-0.0552975
-0.0517902
-0.0476002
-0.0428212
-0.0376422
-0.0324339
-0.0275362
-0.0230942
-0.0192261
-0.0159197
-0.0131324
-0.0108127
-0.00889726
-0.00732132
-0.00602951
-0.00497444
-0.00411244
-0.00340743
-0.00282979
-0.00235539
-0.00196468
-0.00164187
-0.00137424
-0.00115151
-0.000965398
-0.000809203
-0.00067747
-0.000565747
-0.000470381
-0.000388348
-0.000317126
-0.000254589
-0.000198918
-0.000148535
-0.000102044
-5.81791e-05
-1.57617e-05
2.63386e-05
6.93233e-05
0.000113785
0.000160903
0.000225444
0.000361817
-0.0658077
-0.0656993
-0.0656104
-0.0655435
-0.0654919
-0.0654497
-0.0654067
-0.0653507
-0.0652585
-0.0650992
-0.064838
-0.0644283
-0.0638125
-0.062922
-0.0616784
-0.0599968
-0.0577929
-0.0549957
-0.05156
-0.047517
-0.0429648
-0.0380673
-0.033109
-0.0283665
-0.0239889
-0.0200995
-0.0167401
-0.0138725
-0.011461
-0.00945409
-0.0077924
-0.00642275
-0.00530019
-0.00438116
-0.00362852
-0.0030115
-0.00250474
-0.00208753
-0.00174306
-0.00145771
-0.00122049
-0.00102248
-0.000856483
-0.000716634
-0.000598154
-0.000497118
-0.000410288
-0.000334962
-0.000268868
-0.000210067
-0.000156878
-0.000107816
-6.15391e-05
-1.67986e-05
2.75938e-05
7.29065e-05
0.000119729
0.000169818
0.000235304
0.000383921
-0.0658592
-0.0657506
-0.0656623
-0.0655934
-0.0655381
-0.0654904
-0.0654396
-0.0653735
-0.0652671
-0.0650902
-0.0648071
-0.064371
-0.0637248
-0.0628015
-0.0615254
-0.0598166
-0.0575979
-0.0548074
-0.0514089
-0.0474417
-0.0430048
-0.0382481
-0.0334198
-0.0287695
-0.0244409
-0.0205438
-0.0171684
-0.0142661
-0.0118119
-0.00976007
-0.00805496
-0.0066449
-0.00548632
-0.00453631
-0.00375739
-0.00311834
-0.00259326
-0.00216089
-0.00180393
-0.00150829
-0.00126259
-0.00105759
-0.000885805
-0.000741147
-0.000618649
-0.000514234
-0.000424538
-0.000346758
-0.000278536
-0.000217862
-0.000162997
-0.000112405
-6.47027e-05
-1.86047e-05
2.70901e-05
7.37062e-05
0.000121828
0.000173686
0.000227975
0.000421913
-0.0568925
-0.0573258
-0.0575597
-0.0576013
-0.0574791
-0.0571823
-0.056697
-0.0560023
-0.0550687
-0.0538587
-0.0523269
-0.0504215
-0.0480871
-0.0452698
-0.0419285
-0.0380623
-0.0337001
-0.0289405
-0.0239315
-0.0189536
-0.0143685
-0.0103775
-0.00702669
-0.00432851
-0.00223688
-0.000668484
0.000463643
0.00123534
0.00172467
0.00200125
0.0021218
0.00213181
0.00206665
0.00195319
0.00181133
0.00165544
0.00149556
0.00133851
0.00118857
0.00104804
0.000917449
0.000797446
0.000691164
0.000596006
0.000510333
0.00043351
0.000364519
0.000302328
0.000245849
0.000193991
0.000145889
0.000100713
5.75039e-05
1.53594e-05
-2.65932e-05
-6.93342e-05
-0.000113292
-0.000159375
-0.000209951
-0.000379084
-0.0570779
-0.0574859
-0.0577167
-0.057759
-0.0576426
-0.0573587
-0.056893
-0.0562249
-0.0553253
-0.0541563
-0.0526719
-0.0508179
-0.0485347
-0.0457617
-0.0424469
-0.0385745
-0.0341589
-0.0292874
-0.0240967
-0.0189281
-0.0142146
-0.0101389
-0.00675386
-0.00405766
-0.00199023
-0.000457411
0.000634135
0.0013662
0.00182064
0.0020678
0.00216459
0.00215607
0.00207695
0.00195333
0.00180437
0.00164376
0.00148098
0.00132236
0.00117176
0.00103113
0.000901011
0.000782499
0.000677595
0.000583542
0.000499104
0.000423514
0.000355734
0.000294719
0.000239367
0.000188609
0.000141592
9.74632e-05
5.52827e-05
1.41549e-05
-2.68015e-05
-6.85444e-05
-0.000111448
-0.000156328
-0.000217194
-0.000345529
-0.0574168
-0.0577926
-0.0580077
-0.0580477
-0.0579407
-0.0576781
-0.0572465