/*--------------------------------*- C++ -*----------------------------------*\
  =========                 |
  \\      /  F ield         | OpenFOAM: The Open Source CFD Toolbox
   \\    /   O peration     | Website:  https://openfoam.org
    \\  /    A nd           | Version:  dev
     \\/     M anipulation  |
\*---------------------------------------------------------------------------*/
FoamFile
{
    format      ascii;
    class       surfaceScalarField;
    location    "400";
    object      phi;
}
// * * * * * * * * * * * * * * * * * * * * * * * * * * * * * * * * * * * * * //

dimensions      [0 3 -1 0 0 0 0];

internalField   nonuniform List<scalar> 
69200
(
0.00999937
5.21268e-07
1.05468e-07
0.00999765
1.44447e-06
2.78782e-07
0.00999491
2.29804e-06
4.38913e-07
0.0099912
3.11654e-06
5.97346e-07
0.0099865
3.93202e-06
7.67023e-07
0.00998077
4.77109e-06
9.58275e-07
0.00997394
5.65412e-06
1.17808e-06
0.00996591
6.59452e-06
1.42948e-06
0.00995661
7.5963e-06
1.70964e-06
0.00994595
8.65033e-06
2.00708e-06
0.00993392
9.72926e-06
2.29792e-06
0.0099206
1.07814e-05
2.5417e-06
0.0099062
1.17246e-05
2.67761e-06
0.00989113
1.2443e-05
2.62337e-06
0.00987606
1.27888e-05
2.27931e-06
0.00986192
1.25988e-05
1.54496e-06
0.00984984
1.17306e-05
3.49516e-07
0.00984103
1.01137e-05
-1.30801e-06
0.00983655
7.80541e-06
-3.32286e-06
0.00983695
5.04787e-06
-5.44477e-06
0.00984227
2.12712e-06
-7.44962e-06
0.00985195
-5.95315e-07
-9.08692e-06
0.00986504
-2.8622e-06
-1.02225e-05
0.00988041
-4.54356e-06
-1.08273e-05
0.00989697
-5.61586e-06
-1.09451e-05
0.00991376
-6.13244e-06
-1.06618e-05
0.00993003
-6.18809e-06
-1.00785e-05
0.00994522
-5.89572e-06
-9.29534e-06
0.00995899
-5.36666e-06
-8.40131e-06
0.00997115
-4.69592e-06
-7.46617e-06
0.00998165
-3.95946e-06
-6.54153e-06
0.00999053
-3.21407e-06
-5.66276e-06
0.00999788
-2.49934e-06
-4.85184e-06
0.0100038
-1.84068e-06
-4.12046e-06
0.0100086
-1.25243e-06
-3.47271e-06
0.0100122
-7.40723e-07
-2.90747e-06
0.0100149
-3.05954e-07
-2.42026e-06
0.0100169
5.52735e-08
-2.00458e-06
0.0100182
3.48649e-07
-1.65303e-06
0.010019
5.8104e-07
-1.35795e-06
0.0100193
7.59713e-07
-1.11197e-06
0.0100193
8.90973e-07
-9.09061e-07
0.0100191
9.85123e-07
-7.39576e-07
0.0100187
1.04656e-06
-5.99629e-07
0.0100181
1.08005e-06
-4.85231e-07
0.0100174
1.09073e-06
-3.91894e-07
0.0100166
1.08292e-06
-3.15902e-07
0.0100158
1.06031e-06
-2.54159e-07
0.010015
1.02601e-06
-2.04072e-07
0.0100141
9.8263e-07
-1.63526e-07
0.0100133
9.3242e-07
-1.30788e-07
0.0100126
8.7733e-07
-1.04348e-07
0.0100118
8.19096e-07
-8.29686e-08
0.0100111
7.59332e-07
-6.56665e-08
0.0100105
6.99651e-07
-5.16539e-08
0.0100099
6.41768e-07
-4.03364e-08
0.0100093
5.87684e-07
-3.12524e-08
0.0100088
5.39345e-07
-2.45538e-08
0.0100083
5.02477e-07
-1.74998e-08
4.64151e-07
-2.62594e-08
0.0099994
1.01718e-06
1.08197e-07
0.00999773
2.82604e-06
2.84948e-07
0.00999508
4.49473e-06
4.48844e-07
0.00999149
6.09542e-06
6.11942e-07
0.00998695
7.68932e-06
7.87847e-07
0.0099814
9.32757e-06
9.8796e-07
0.00997479
1.105e-05
1.22043e-06
0.00996701
1.28832e-05
1.48971e-06
0.00995797
1.48357e-05
1.79465e-06
0.00994761
1.68913e-05
2.12551e-06
0.00993588
1.89991e-05
2.45987e-06
0.00992284
2.10617e-05
2.75764e-06
0.00990869
2.2923e-05
2.95599e-06
0.0098938
2.43602e-05
2.96631e-06
0.00987883
2.50868e-05
2.67647e-06
0.00986468
2.4781e-05
1.96582e-06
0.00985252
2.31537e-05
7.38664e-07
0.00984361
2.0052e-05
-1.02579e-06
0.00983906
1.5574e-05
-3.22314e-06
0.00983952
1.01616e-05
-5.57691e-06
0.009845
4.42976e-06
-7.78301e-06
0.00985487
-9.00497e-07
-9.56135e-06
0.0098681
-5.32704e-06
-1.07688e-05
0.00988354
-8.59688e-06
-1.13844e-05
0.00990007
-1.06714e-05
-1.1469e-05
0.00991672
-1.16612e-05
-1.11265e-05
0.00993276
-1.17571e-05
-1.0473e-05
0.00994767
-1.1183e-05
-9.6194e-06
0.00996112
-1.01553e-05
-8.6604e-06
0.00997295
-8.85825e-06
-7.6688e-06
0.00998313
-7.43838e-06
-6.69711e-06
0.0099917
-6.00456e-06
-5.78034e-06
0.00999877
-4.6324e-06
-4.9395e-06
0.0100045
-3.37013e-06
-4.18501e-06
0.010009
-2.24471e-06
-3.51972e-06
0.0100125
-1.26747e-06
-2.94135e-06
0.010015
-4.38757e-07
-2.44442e-06
0.0100169
2.48233e-07
-2.02165e-06
0.0100181
8.04639e-07
-1.66498e-06
0.0100188
1.24379e-06
-1.36626e-06
0.0100191
1.57962e-06
-1.11782e-06
0.0100191
1.8254e-06
-9.12925e-07
0.0100188
1.99979e-06
-7.42028e-07
0.0100183
2.11087e-06
-6.0132e-07
0.0100177
2.1687e-06
-4.8635e-07
0.010017
2.18297e-06
-3.92615e-07
0.0100163
2.16197e-06
-3.16355e-07
0.0100155
2.11276e-06
-2.54436e-07
0.0100147
2.04129e-06
-2.04234e-07
0.0100138
1.95259e-06
-1.6362e-07
0.0100131
1.85097e-06
-1.30842e-07
0.0100123
1.74019e-06
-1.04374e-07
0.0100116
1.62356e-06
-8.29779e-08
0.0100109
1.50421e-06
-6.56657e-08
0.0100103
1.38526e-06
-5.16465e-08
0.0100097
1.27004e-06
-4.03225e-08
0.0100091
1.16244e-06
-3.12554e-08
0.0100086
1.06678e-06
-2.43506e-08
0.0100082
9.89961e-07
-1.72569e-08
9.31817e-07
-2.75874e-08
0.00999944
1.46918e-06
1.12671e-07
0.00999788
4.08304e-06
2.9663e-07
0.00999541
6.49559e-06
4.67616e-07
0.00999206
8.80844e-06
6.395e-07
0.00998781
1.11084e-05
8.27404e-07
0.00998263
1.3468e-05
1.0446e-06
0.00997643
1.59445e-05
1.30153e-06
0.00996913
1.85764e-05
1.6055e-06
0.00996063
2.13778e-05
1.95879e-06
0.00995084
2.43289e-05
2.3554e-06
0.0099397
2.73618e-05
2.77631e-06
0.00992724
3.03445e-05
3.18299e-06
0.00991359
3.30623e-05
3.50978e-06
0.00989909
3.52046e-05
3.65698e-06
0.00988432
3.63658e-05
3.48874e-06
0.00987018
3.60779e-05
2.84383e-06
0.00985785
3.39024e-05
1.57305e-06
0.00984872
2.95819e-05
-3.91325e-07
0.00984404
2.32114e-05
-2.95848e-06
0.0098446
1.53849e-05
-5.78125e-06
0.00985035
7.08093e-06
-8.40699e-06
0.00986055
-6.24074e-07
-1.04772e-05
0.00987405
-6.99409e-06
-1.18309e-05
0.00988959
-1.16707e-05
-1.24676e-05
0.00990602
-1.46148e-05
-1.24853e-05
0.00992238
-1.60001e-05
-1.2025e-05
0.00993797
-1.61142e-05
-1.12333e-05
0.00995232
-1.52856e-05
-1.02417e-05
0.00996514
-1.3824e-05
-9.15633e-06
0.00997633
-1.19912e-05
-8.05548e-06
0.00998588
-9.9936e-06
-6.99317e-06
0.00999386
-7.98342e-06
-6.00351e-06
0.0100004
-6.06558e-06
-5.10546e-06
0.0100056
-4.30637e-06
-4.30693e-06
0.0100098
-2.74233e-06
-3.6083e-06
0.0100129
-1.38827e-06
-3.00504e-06
0.0100152
-2.43839e-07
-2.48975e-06
0.0100168
7.01141e-07
-2.0536e-06
0.0100178
1.46273e-06
-1.68729e-06
0.0100184
2.0599e-06
-1.38174e-06
0.0100186
2.51248e-06
-1.1286e-06
0.0100185
2.84088e-06
-9.19947e-07
0.0100181
3.06838e-06
-7.46581e-07
0.0100177
3.20725e-06
-6.04372e-07
0.010017
3.27223e-06
-4.88333e-07
0.0100163
3.27679e-06
-3.93865e-07
0.0100156
3.2325e-06
-3.17116e-07
0.0100148
3.14922e-06
-2.54877e-07
0.010014
3.03526e-06
-2.04469e-07
0.0100132
2.89766e-06
-1.63737e-07
0.0100125
2.74246e-06
-1.30889e-07
0.0100117
2.57492e-06
-1.04373e-07
0.010011
2.39969e-06
-8.29492e-08
0.0100104
2.22118e-06
-6.56224e-08
0.0100098
2.04384e-06
-5.15961e-08
0.0100092
1.87246e-06
-4.02659e-08
0.0100087
1.71268e-06
-3.12053e-08
0.0100082
1.57112e-06
-2.42296e-08
0.0100078
1.45694e-06
-1.72651e-08
1.37714e-06
-2.73093e-08
0.00999949
1.85762e-06
1.1882e-07
0.0099981
5.16442e-06
3.12913e-07
0.00999588
8.2184e-06
4.93767e-07
0.00999287
1.11434e-05
6.77862e-07
0.00998905
1.4046e-05
8.82577e-07
0.00998438
1.70155e-05
1.1238e-06
0.00997878
2.01227e-05
1.41533e-06
0.00997218
2.34165e-05
1.76873e-06
0.00996445
2.69165e-05
2.19152e-06
0.00995549
3.06027e-05
2.68379e-06
0.00994522
3.43987e-05
3.23259e-06
0.00993361
3.8152e-05
3.80362e-06
0.00992073
4.16106e-05
4.32996e-06
0.00990683
4.44043e-05
4.69921e-06
0.00989241
4.604e-05
4.74356e-06
0.00987832
4.59311e-05
4.24233e-06
0.00986576
4.34974e-05
2.95904e-06
0.00985625
3.83517e-05
7.3754e-07
0.00985132
3.05265e-05
-2.37878e-06
0.00985193
2.07044e-05
-5.93046e-06
0.00985801
1.02197e-05
-9.22282e-06
0.00986863
5.08237e-07
-1.17527e-05
0.00988245
-7.47744e-06
-1.33341e-05
0.00989808
-1.32979e-05
-1.40048e-05
0.00991432
-1.69289e-05
-1.3924e-05
0.00993023
-1.86125e-05
-1.32916e-05
0.00994514
-1.87302e-05
-1.23e-05
0.00995867
-1.77004e-05
-1.11104e-05
0.0099706
-1.59086e-05
-9.84519e-06
0.00998087
-1.36773e-05
-8.58999e-06
0.00998954
-1.12577e-05
-7.40047e-06
0.0099967
-8.83355e-06
-6.30913e-06
0.0100025
-6.52998e-06
-5.3317e-06
0.0100071
-4.42514e-06
-4.47239e-06
0.0100106
-2.56129e-06
-3.72795e-06
0.0100133
-9.54693e-07
-3.09065e-06
0.0100152
3.9637e-07
-2.55038e-06
0.0100165
1.5052e-06
-2.0961e-06
0.0100173
2.3919e-06
-1.71681e-06
0.0100177
3.07999e-06
-1.4021e-06
0.0100177
3.59417e-06
-1.1425e-06
0.0100175
3.96049e-06
-9.28888e-07
0.0100171
4.20389e-06
-7.52385e-07
0.0100166
4.34094e-06
-6.08163e-07
0.010016
4.38981e-06
-4.90734e-07
0.0100153
4.36672e-06
-3.95329e-07
0.0100146
4.28561e-06
-3.17966e-07
0.0100138
4.15835e-06
-2.55332e-07
0.0100131
3.99495e-06
-2.04683e-07
0.0100123
3.8039e-06
-1.63816e-07
0.0100116
3.59249e-06
-1.30887e-07
0.0100109
3.36705e-06
-1.04323e-07
0.0100103
3.13327e-06
-8.28761e-08
0.0100096
2.89653e-06
-6.55405e-08
0.0100091
2.66233e-06
-5.15139e-08
0.0100086
2.43673e-06
-4.01851e-08
0.0100081
2.22691e-06
-3.11301e-08
0.0100076
2.0416e-06
-2.41305e-08
0.0100072
1.89235e-06
-1.73207e-08
1.79069e-06
-2.63941e-08
0.00999956
2.16716e-06
1.26163e-07
0.00999837
6.03025e-06
3.32468e-07
0.00999646
9.59814e-06
5.25162e-07
0.00999387
1.30116e-05
7.23914e-07
0.00999058
1.63886e-05
9.48911e-07
0.00998654
1.98291e-05
1.21926e-06
0.0099817
2.34127e-05
1.55297e-06
0.00997596
2.71948e-05
1.96711e-06
0.0099692
3.11999e-05
2.47623e-06
0.0099613
3.54098e-05
3.08903e-06
0.00995215
3.97471e-05
3.80208e-06
0.00994166
4.40533e-05
4.5897e-06
0.00992982
4.80632e-05
5.38843e-06
0.00991676
5.13816e-05
6.07663e-06
0.00990288
5.3472e-05
6.4525e-06
0.00988891
5.36767e-05
6.22264e-06
0.00987607
5.13061e-05
5.02807e-06
0.00986603
4.58345e-05
2.56392e-06
0.00986062
3.7175e-05
-1.24377e-06
0.00986114
2.59917e-05
-5.80573e-06
0.00986751
1.39056e-05
-1.00496e-05
0.00987853
2.7113e-06
-1.32315e-05
0.00989264
-6.44721e-06
-1.51359e-05
0.00990828
-1.30773e-05
-1.58634e-05
0.00992419
-1.71782e-05
-1.56628e-05
0.00993946
-1.90618e-05
-1.48164e-05
0.0099535
-1.91893e-05
-1.35776e-05
0.00996599
-1.80452e-05
-1.21447e-05
0.00997681
-1.60678e-05
-1.06602e-05
0.00998597
-1.36189e-05
-9.21841e-06
0.00999356
-1.09767e-05
-7.87637e-06
0.00999973
-8.34207e-06
-6.664e-06
0.0100046
-5.85033e-06
-5.59275e-06
0.0100085
-3.58469e-06
-4.66207e-06
0.0100114
-1.58915e-06
-3.8642e-06
0.0100135
1.20499e-07
-3.18744e-06
0.0100149
1.54776e-06
-2.61839e-06
0.0100159
2.70843e-06
-2.14339e-06
0.0100164
3.62552e-06
-1.74934e-06
0.0100166
4.32556e-06
-1.42425e-06
0.0100165
4.83665e-06
-1.15725e-06
0.0100162
5.18769e-06
-9.38174e-07
0.0100158
5.40381e-06
-7.5831e-07
0.0100152
5.50483e-06
-6.11882e-07
0.0100146
5.51092e-06
-4.92968e-07
0.0100139
5.43979e-06
-3.9659e-07
0.0100132
5.30667e-06
-3.18606e-07
0.0100125
5.12449e-06
-2.55589e-07
0.0100118
4.90419e-06
-2.04723e-07
0.0100111
4.65503e-06
-1.63745e-07
0.0100104
4.38502e-06
-1.30754e-07
0.0100098
4.10107e-06
-1.04163e-07
0.0100092
3.80946e-06
-8.27116e-08
0.0100087
3.51621e-06
-6.53847e-08
0.0100081
3.22759e-06
-5.13729e-08
0.0100077
2.95062e-06
-4.00589e-08
0.0100072
2.69376e-06
-3.10162e-08
0.0100068
2.46757e-06
-2.40075e-08
0.0100065
2.28586e-06
-1.73771e-08
2.16322e-06
-2.51714e-08
0.00999965
2.3879e-06
1.34031e-07
0.00999867
6.65337e-06
3.53575e-07
0.00999712
1.05921e-05
5.58984e-07
0.009995
1.4354e-05
7.73628e-07
0.00999231
1.80604e-05
1.02062e-06
0.009989
2.18146e-05
1.3227e-06
0.00998501
2.56987e-05
1.70265e-06
0.00998025
2.97699e-05
2.18391e-06
0.00997461
3.40542e-05
2.78951e-06
0.00996794
3.85351e-05
3.53905e-06
0.00996011
4.31386e-05
4.44233e-06
0.00995096
4.77119e-05
5.48775e-06
0.0099404
5.19988e-05
6.62319e-06
0.00992844
5.56153e-05
7.72736e-06
0.00991531
5.80331e-05
8.57269e-06
0.0099016
5.85898e-05
8.79169e-06
0.00988848
5.65553e-05
7.87768e-06
0.00987771
5.13001e-05
5.30628e-06
0.00987152
4.25915e-05
7.68817e-07
0.00987166
3.09269e-05
-5.07415e-06
0.00987811
1.80426e-05
-1.05914e-05
0.00988941
6.06128e-06
-1.46484e-05
0.00990367
-3.71148e-06
-1.69964e-05
0.00991918
-1.0754e-05
-1.78271e-05
0.0099346
-1.50901e-05
-1.75108e-05
0.00994906
-1.70871e-05
-1.64359e-05
0.00996206
-1.72559e-05
-1.49286e-05
0.00997336
-1.61173e-05
-1.32316e-05
0.00998294
-1.41338e-05
-1.15106e-05
0.00999087
-1.16816e-05
-9.86921e-06
0.0099973
-9.04592e-06
-8.36527e-06
0.0100024
-6.43015e-06
-7.02552e-06
0.0100064
-3.9695e-06
-5.85633e-06
0.0100094
-1.74584e-06
-4.85177e-06
0.0100116
1.98685e-07
-3.99904e-06
0.0100132
1.8502e-06
-3.28212e-06
0.0100142
3.21393e-06
-2.68406e-06
0.0100148
4.30725e-06
-2.18836e-06
0.010015
5.15447e-06
-1.77973e-06
0.010015
5.7834e-06
-1.44443e-06
0.0100148
6.22339e-06
-1.17015e-06
0.0100144
6.50333e-06
-9.45946e-07
0.0100139
6.64762e-06
-7.62996e-07
0.0100134
6.67768e-06
-6.14566e-07
0.0100128
6.61403e-06
-4.94356e-07
0.0100121
6.47455e-06
-3.97167e-07
0.0100115
6.27459e-06
-3.18698e-07
0.0100108
6.02717e-06
-2.55413e-07
0.0100102
5.74331e-06
-2.04425e-07
0.0100096
5.43235e-06
-1.63405e-07
0.010009
5.10236e-06
-1.30408e-07
0.0100085
4.76038e-06
-1.03837e-07
0.0100079
4.41282e-06
-8.24183e-08
0.0100074
4.06597e-06
-6.51296e-08
0.010007
3.72651e-06
-5.1156e-08
0.0100066
3.40211e-06
-3.98755e-08
0.0100062
3.10222e-06
-3.08563e-08
0.0100059
2.83884e-06
-2.3848e-08
0.0100055
2.62784e-06
-1.74219e-08
2.48604e-06
-2.36687e-08
0.00999973
2.51555e-06
1.41739e-07
0.00999899
7.02156e-06
3.74397e-07
0.00999781
1.11818e-05
5.92328e-07
0.00999619
1.51446e-05
8.22638e-07
0.00999413
1.90283e-05
1.0914e-06
0.00999159
2.29313e-05
1.42495e-06
0.00998851
2.69313e-05
1.85095e-06
0.0099848
3.10813e-05
2.39951e-06
0.00998035
3.54037e-05
3.10285e-06
0.00997501
3.98808e-05
3.9929e-06
0.00996861
4.4442e-05
5.09544e-06
0.00996096
4.89461e-05
6.41823e-06
0.00995186
5.31613e-05
7.9296e-06
0.00994121
5.67441e-05
9.52312e-06
0.00992905
5.92249e-05
1.09657e-05
0.0099158
6.0011e-05
1.18357e-05
0.00990244
5.84313e-05
1.14815e-05
0.00989078
5.38517e-05
9.10631e-06
0.00988342
4.59395e-05
4.01733e-06
0.00988272
3.49032e-05
-3.2774e-06
0.0098889
2.22734e-05
-1.04094e-05
0.00990018
1.03794e-05
-1.55996e-05
0.00991435
6.64207e-07
-1.85519e-05
0.00992952
-6.33714e-06
-1.95804e-05
0.00994429
-1.0659e-05
-1.92018e-05
0.00995782
-1.26894e-05
-1.79296e-05
0.00996969
-1.29477e-05
-1.61747e-05
0.00997975
-1.19531e-05
-1.42297e-05
0.00998806
-1.01593e-05
-1.2286e-05
0.00999477
-7.93009e-06
-1.04572e-05
0.0100001
-5.5377e-06
-8.8024e-06
0.0100042
-3.17378e-06
-7.34489e-06
0.0100072
-9.64089e-07
-6.08602e-06
0.0100095
1.01646e-06
-5.0145e-06
0.0100111
2.73039e-06
-4.11263e-06
0.0100121
4.16659e-06
-3.36019e-06
0.0100127
5.33159e-06
-2.73684e-06
0.010013
6.24297e-06
-2.22337e-06
0.010013
6.92465e-06
-1.80244e-06
0.0100129
7.40369e-06
-1.45864e-06
0.0100126
7.70827e-06
-1.17842e-06
0.0100122
7.86491e-06
-9.50259e-07
0.0100117
7.89642e-06
-7.65053e-07
0.0100112
7.82383e-06
-6.15221e-07
0.0100106
7.66646e-06
-4.94194e-07
0.01001
7.44104e-06
-3.96567e-07
0.0100095
7.16193e-06
-3.17901e-07
0.0100089
6.84129e-06
-2.54567e-07
0.0100084
6.48936e-06
-2.03621e-07
0.0100078
6.11488e-06
-1.62677e-07
0.0100073
5.72543e-06
-1.29767e-07
0.0100069
5.32762e-06
-1.03288e-07
0.0100064
4.92762e-06
-8.19577e-08
0.010006
4.53159e-06
-6.47493e-08
0.0100057
4.1463e-06
-5.08459e-08
0.0100053
3.77972e-06
-3.96226e-08
0.010005
3.44192e-06
-3.06431e-08
0.0100047
3.14598e-06
-2.36464e-08
0.0100045
2.90951e-06
-1.74533e-08
2.75124e-06
-2.19138e-08
0.00999982
2.55166e-06
1.48617e-07
0.00999931
7.13834e-06
3.93138e-07
0.00999849
1.13728e-05
6.22345e-07
0.00999738
1.53917e-05
8.66696e-07
0.00999595
1.93031e-05
1.15501e-06
0.00999417
2.31945e-05
1.51679e-06
0.00999198
2.71319e-05
1.98416e-06
0.00998931
3.11577e-05
2.59343e-06
0.00998605
3.52846e-05
3.38553e-06
0.00998203
3.94887e-05
4.40453e-06
0.00997708
4.36995e-05
5.69278e-06
0.00997096
4.77872e-05
7.27989e-06
0.00996341
5.15503e-05
9.16105e-06
0.0099542
5.47031e-05
1.12585e-05
0.00994319
5.68697e-05
1.33597e-05
0.00993058
5.75905e-05
1.50302e-05
0.00991713
5.63552e-05
1.55233e-05
0.00990453
5.26671e-05
1.3789e-05
0.00989557
4.62264e-05
8.66885e-06
0.00989341
3.70016e-05
6.21373e-08
0.00989875
2.59001e-05
-8.95954e-06
0.00990957
1.51189e-05
-1.55591e-05
0.00992332
6.23364e-06
-1.93272e-05
0.00993792
-2.13951e-07
-2.07175e-05
0.0099519
-4.24302e-06
-2.04024e-05
0.00996446
-6.21099e-06
-1.9031e-05
0.00997521
-6.59583e-06
-1.7107e-05
0.00998411
-5.87144e-06
-1.49779e-05
0.00999126
-4.44736e-06
-1.28639e-05
0.00999687
-2.64796e-06
-1.08904e-05
0.0100012
-7.13347e-07
-9.11909e-06
0.0100044
1.18955e-06
-7.57133e-06
0.0100067
2.95261e-06
-6.24452e-06
0.0100083
4.51252e-06
-5.12305e-06
0.0100094
5.8386e-06
-4.18521e-06
0.0100101
6.92292e-06
-3.40737e-06
0.0100104
7.77259e-06
-2.76643e-06
0.0100105
8.40407e-06
-2.24105e-06
0.0100104
8.83915e-06
-1.81219e-06
0.0100101
9.10212e-06
-1.46314e-06
0.0100098
9.21774e-06
-1.17943e-06
0.0100094
9.20843e-06
-9.49269e-07
0.010009
9.09451e-06
-7.63177e-07
0.0100085
8.89471e-06
-6.12947e-07
0.010008
8.62574e-06
-4.91855e-07
0.0100076
8.30206e-06
-3.94352e-07
0.0100071
7.936e-06
-3.15908e-07
0.0100067
7.53802e-06
-2.52837e-07
0.0100062
7.11692e-06
-2.02158e-07
0.0100058
6.68017e-06
-1.61457e-07
0.0100055
6.23434e-06
-1.28762e-07
0.0100051
5.78521e-06
-1.02469e-07
0.0100048
5.3383e-06
-8.12984e-08
0.0100045
4.89934e-06
-6.42227e-08
0.0100042
4.47484e-06
-5.04283e-08
0.0100039
4.07276e-06
-3.92909e-08
0.0100037
3.70346e-06
-3.03708e-08
0.0100035
3.38068e-06
-2.33969e-08
0.0100033
3.12315e-06
-1.7464e-08
2.95173e-06
-1.99466e-08
0.00999989
2.50318e-06
1.54104e-07
0.0099996
7.02162e-06
4.08287e-07
0.00999914
1.11931e-05
6.4661e-07
0.00999849
1.51347e-05
9.02196e-07
0.00999765
1.89375e-05
1.20599e-06
0.00999658
2.26727e-05
1.59014e-06
0.00999523
2.63895e-05
2.09018e-06
0.00999353
3.0114e-05
2.74733e-06
0.00999136
3.38437e-05
3.60956e-06
0.00998858
3.75433e-05
4.73098e-06
0.00998497
4.11378e-05
6.1681e-06
0.00998028
4.45054e-05
7.97042e-06
0.0099742
4.74733e-05
1.01601e-05
0.00996639
4.98179e-05
1.26937e-05
0.00995659
5.12712e-05
1.53981e-05
0.00994477
5.15395e-05
1.78711e-05
0.00993143
5.03366e-05
1.93583e-05
0.00991799
4.74216e-05
1.86841e-05
0.00990719
4.26751e-05
1.43562e-05
0.00990284
3.61195e-05
5.23009e-06
0.00990656
2.78578e-05
-5.67753e-06
0.00991633
1.9309e-05
-1.39598e-05
0.00992926
1.21056e-05
-1.88068e-05
0.00994306
6.79195e-06
-2.07991e-05
0.00995618
3.39157e-06
-2.07576e-05
0.0099678
1.63467e-06
-1.94616e-05
0.00997757
1.13858e-06
-1.7512e-05
0.0099855
1.52065e-06
-1.53154e-05
0.00999172
2.45103e-06
-1.31244e-05
0.00999648
3.67022e-06
-1.10803e-05
0.01
4.98799e-06
-9.25071e-06
0.0100026
6.27364e-06
-7.65789e-06
0.0100044
7.44379e-06
-6.29792e-06
0.0100056
8.4507e-06
-5.15303e-06
0.0100064
9.2723e-06
-4.19931e-06
0.0100068
9.9042e-06
-3.41119e-06
0.010007
1.03535e-05
-2.76397e-06
0.010007
1.06345e-05
-2.23511e-06
0.0100069
1.07655e-05
-1.80462e-06
0.0100067
1.07661e-05
-1.45481e-06
0.0100064
1.0656e-05
-1.17099e-06
0.0100061
1.04528e-05
-9.41517e-07
0.0100058
1.01732e-05
-7.56304e-07
0.0100055
9.832e-06
-6.07021e-07
0.0100051
9.44227e-06
-4.86847e-07
0.0100048
9.01529e-06
-3.90185e-07
0.0100045
8.56064e-06
-3.12485e-07
0.0100042
8.08641e-06
-2.5006e-07
0.0100039
7.59938e-06
-1.99927e-07
0.0100036
7.10532e-06
-1.59674e-07
0.0100034
6.60936e-06
-1.27345e-07
0.0100032
6.11611e-06
-1.0135e-07
0.010003
5.63016e-06
-8.04197e-08
0.0100028
5.15652e-06
-6.35365e-08
0.0100026
4.70117e-06
-4.98949e-08
0.0100024
4.2718e-06
-3.88751e-08
0.0100023
3.87871e-06
-3.00355e-08
0.0100022
3.5359e-06
-2.30976e-08
0.010002
3.2626e-06
-1.74648e-08
3.0817e-06
-1.78063e-08
0.00999996
2.38145e-06
1.57794e-07
0.00999987
6.70125e-06
4.18748e-07
0.00999971
1.06896e-05
6.63346e-07
0.00999948
1.44386e-05
9.26538e-07
0.00999915
1.80178e-05
1.24057e-06
0.00999871
2.14781e-05
1.63921e-06
0.00999809
2.48488e-05
2.16031e-06
0.00999722
2.81362e-05
2.84812e-06
0.00999599
3.13193e-05
3.75499e-06
0.00999424
3.43477e-05
4.9416e-06
0.00999177
3.71392e-05
6.47389e-06
0.00998828
3.95758e-05
8.41559e-06
0.00998344
4.15094e-05
1.08099e-05
0.00997683
4.2775e-05
1.36444e-05
0.00996811
4.3211e-05
1.67888e-05
0.00995706
4.26932e-05
1.98972e-05
0.00994394
4.11771e-05
2.22718e-05
0.00992989
3.8728e-05
2.27416e-05
0.00991737
3.55069e-05
1.96907e-05
0.00991037
3.17597e-05
1.13581e-05
0.00991162
2.71055e-05
-4.92605e-07
0.0099196
2.17811e-05
-1.04536e-05
0.00993122
1.7079e-05
-1.65922e-05
0.00994396
1.35088e-05
-1.94582e-05
0.00995618
1.11375e-05
-1.99626e-05
0.00996697
9.82113e-06
-1.89826e-05
0.009976
9.31824e-06
-1.72087e-05
0.00998325
9.37888e-06
-1.51078e-05
0.00998889
9.78438e-06
-1.29695e-05
0.00999315
1.03627e-05
-1.0956e-05
0.0099963
1.09889e-05
-9.14637e-06
0.00999856
1.15788e-05
-7.5683e-06
0.0100001
1.208e-05
-6.22049e-06
0.0100012
1.24642e-05
-5.08629e-06
0.0100019
1.27198e-05
-4.14219e-06
0.0100023
1.28468e-05
-3.36274e-06
0.0100026
1.28523e-05
-2.72327e-06
0.0100026
1.27478e-05
-2.20125e-06
0.0100026
1.2547e-05
-1.77653e-06
0.0100026
1.22641e-05
-1.43133e-06
0.0100025
1.19132e-05
-1.15181e-06
0.0100023
1.15068e-05
-9.25974e-07
0.0100022
1.10564e-05
-7.43778e-07
0.0100021
1.05722e-05
-5.9701e-07
0.0100019
1.00631e-05
-4.78883e-07
0.0100018
9.5365e-06
-3.83876e-07
0.0100016
8.99886e-06
-3.07508e-07
0.0100015
8.45546e-06
-2.46153e-07
0.0100014
7.91075e-06
-1.96873e-07
0.0100013
7.3685e-06
-1.57297e-07
0.0100012
6.83212e-06
-1.25498e-07
0.0100011
6.30487e-06
-9.99203e-08
0.010001
5.79018e-06
-7.9316e-08
0.010001
5.29216e-06
-6.26878e-08
0.0100009
4.81607e-06
-4.92446e-08
0.0100008
4.36908e-06
-3.83758e-08
0.0100008
3.96115e-06
-2.96399e-08
0.0100007
3.60617e-06
-2.27578e-08
0.0100007
3.32345e-06
-1.74598e-08
3.13687e-06
-1.55176e-08
0.01
2.20087e-06
1.59482e-07
0.0100001
6.21537e-06
4.23954e-07
0.0100002
9.92228e-06
6.71637e-07
0.0100003
1.33863e-05
9.38379e-07
0.0100004
1.66534e-05
1.25688e-06
0.0100005
1.97524e-05
1.66143e-06
0.0100004
2.26918e-05
2.19063e-06
0.0100002
2.54571e-05
2.88981e-06
0.00999972
2.80087e-05
3.81271e-06
0.00999876
3.02809e-05
5.02242e-06
0.00999713
3.21836e-05
6.58879e-06
0.00999452
3.36018e-05
8.58196e-06
0.00999057
3.44084e-05
1.10567e-05
0.00998483
3.44913e-05
1.40207e-05
0.00997688
3.37845e-05
1.73789e-05
0.00996641
3.23152e-05
2.08438e-05
0.00995352
3.02553e-05
2.38077e-05
0.00993909
2.79486e-05
2.52112e-05
0.00992522
2.5843e-05
2.35346e-05
0.00991558
2.43916e-05
1.70113e-05
0.0099137
2.3284e-05
5.69973e-06
0.00991917
2.17362e-05
-5.42179e-06
0.00992892
2.01022e-05
-1.27782e-05
0.00994031
1.8763e-05
-1.66443e-05
0.00995156
1.78029e-05
-1.79129e-05
0.00996166
1.72036e-05
-1.74868e-05
0.00997021
1.68827e-05
-1.61056e-05
0.00997712
1.67447e-05
-1.42839e-05
0.00998255
1.67014e-05
-1.23462e-05
0.00998671
1.66835e-05
-1.04796e-05
0.00998984
1.66426e-05
-8.77932e-06
0.00999215
1.65489e-05
-7.28396e-06
0.00999384
1.63866e-05
-5.99945e-06
0.00999507
1.61503e-05
-4.91412e-06
0.00999596
1.58413e-05
-4.00796e-06
0.0099966
1.54651e-05
-3.25806e-06
0.00999706
1.50297e-05
-2.64158e-06
0.0099974
1.4544e-05
-2.1373e-06
0.00999766
1.40175e-05
-1.72628e-06
0.00999786
1.34588e-05
-1.3922e-06
0.00999802
1.28763e-05
-1.12139e-06
0.00999815
1.22772e-05
-9.02366e-07
0.00999826
1.16674e-05
-7.25491e-07
0.00999836
1.10523e-05
-5.82847e-07
0.00999846
1.04363e-05
-4.67929e-07
0.00999855
9.8232e-06
-3.75416e-07
0.00999863
9.21584e-06
-3.00988e-07
0.00999871
8.61668e-06
-2.41139e-07
0.00999879
8.0277e-06
-1.93024e-07
0.00999886
7.45058e-06
-1.54348e-07
0.00999893
6.88698e-06
-1.23239e-07
0.00999899
6.33868e-06
-9.81929e-08
0.00999905
5.8079e-06
-7.79988e-08
0.00999911
5.29774e-06
-6.16862e-08
0.00999916
4.81262e-06
-4.84855e-08
0.00999921
4.359e-06
-3.77998e-08
0.00999925
3.94628e-06
-2.91903e-08
0.00999929
3.5879e-06
-2.23838e-08
0.00999933
3.30296e-06
-1.74492e-08
3.11468e-06
-1.31355e-08
0.0100001
1.97727e-06
1.59177e-07
0.0100002
5.60627e-06
4.239e-07
0.0100005
8.95782e-06
6.7148e-07
0.0100009
1.20695e-05
9.37745e-07
0.0100014
1.49643e-05
1.25503e-06
0.0100018
1.76499e-05
1.65712e-06
0.0100022
2.0115e-05
2.18199e-06
0.0100025
2.23269e-05
2.87399e-06
0.0100024
2.42293e-05
3.78542e-06
0.010002
2.57438e-05
4.97765e-06
0.0100009
2.67761e-05
6.51944e-06
0.0099988
2.72141e-05
8.48075e-06
0.00999534
2.6951e-05
1.09178e-05
0.00999006
2.59206e-05
1.38475e-05
0.00998251
2.41356e-05
1.71993e-05
0.00997235
2.1743e-05
2.07383e-05
0.00995957
1.90788e-05
2.39576e-05
0.00994486
1.66919e-05
2.59611e-05
0.00993001
1.52572e-05
2.5432e-05
0.0099182
1.53937e-05
2.08154e-05
0.00991311
1.70567e-05
1.13143e-05
0.00991549
1.90001e-05
3.56483e-07
0.00992282
2.05075e-05
-7.73938e-06
0.00993251
2.16192e-05
-1.25453e-05
0.00994267
2.23428e-05
-1.47012e-05
0.00995217
2.27299e-05
-1.50199e-05
0.00996044
2.28328e-05
-1.42266e-05
0.00996735
2.27014e-05
-1.28572e-05
0.00997293
2.23807e-05
-1.12636e-05
0.00997736
2.19088e-05
-9.65755e-06
0.00998084
2.13193e-05
-8.15465e-06
0.00998356
2.06416e-05
-6.80901e-06
0.00998568
1.99004e-05
-5.63818e-06
0.00998735
1.91164e-05
-4.63923e-06
0.00998869
1.83059e-05
-3.79872e-06
0.00998977
1.74821e-05
-3.09869e-06
0.00999066
1.66549e-05
-2.52008e-06
0.00999142
1.58321e-05
-2.0446e-06
0.00999207
1.50193e-05
-1.65557e-06
0.00999265
1.42208e-05
-1.33839e-06
0.00999317
1.34396e-05
-1.08048e-06
0.00999364
1.26776e-05
-8.71247e-07
0.00999407
1.19359e-05
-7.01828e-07
0.00999447
1.12154e-05
-5.6485e-07
0.00999485
1.05163e-05
-4.5424e-07
0.0099952
9.83865e-06
-3.65008e-07
0.00999552
9.18219e-06
-2.93081e-07
0.00999583
8.54663e-06
-2.35136e-07
0.00999611
7.93161e-06
-1.8847e-07
0.00999638
7.33688e-06
-1.50892e-07
0.00999662
6.76239e-06
-1.20619e-07
0.00999685
6.20854e-06
-9.62092e-08
0.00999706
5.67637e-06
-7.64999e-08
0.00999725
5.16795e-06
-6.05563e-08
0.00999742
4.68681e-06
-4.76364e-08
0.00999758
4.2386e-06
-3.71613e-08
0.00999772
3.83197e-06
-2.86991e-08
0.00999785
3.4796e-06
-2.19824e-08
0.00999797
3.19997e-06
-1.74288e-08
3.01444e-06
-1.07326e-08
0.0100001
1.72635e-06
1.57091e-07
0.0100004
4.91605e-06
4.19111e-07
0.0100008
7.86266e-06
6.63728e-07
0.0100014
1.05795e-05
9.2594e-07
0.010002
1.30694e-05
1.237e-06
0.0100027
1.53217e-05
1.62936e-06
0.0100034
1.73091e-05
2.13917e-06
0.0100039
1.89844e-05
2.80822e-06
0.0100042
2.028e-05
3.68511e-06
0.010004
2.111e-05
4.82616e-06
0.0100031
2.13807e-05
6.29498e-06
0.0100012
2.09839e-05
8.15607e-06
0.00999782
1.98361e-05
1.0459e-05
0.00999261
1.79101e-05
1.32205e-05
0.00998508
1.5279e-05
1.63822e-05
0.00997491
1.21738e-05
1.97485e-05
0.00996205
9.03525e-06
2.29014e-05
0.0099471
6.52957e-06
2.51098e-05
0.0099316
5.45639e-06
2.53025e-05
0.00991823
6.5196e-06
2.22381e-05
0.00991036
9.8457e-06
1.50905e-05
0.00990946
1.42677e-05
5.62678e-06
0.009914
1.84002e-05
-2.43404e-06
0.00992167
2.17826e-05
-7.82699e-06
0.00993056
2.42183e-05
-1.07687e-05
0.00993942
2.57375e-05
-1.18673e-05
0.00994754
2.64659e-05
-1.17582e-05
0.00995464
2.656e-05
-1.09519e-05
0.00996065
2.61768e-05
-9.80578e-06
0.00996565
2.54523e-05
-8.54814e-06
0.00996979
2.44981e-05
-7.31335e-06
0.0099732
2.34017e-05
-6.17257e-06
0.00997603
2.2229e-05
-5.15755e-06
0.00997839
2.10278e-05
-4.2767e-06
0.00998039
1.98312e-05
-3.52552e-06
0.00998211
1.86612e-05
-2.89293e-06
0.0099836
1.75315e-05
-2.36517e-06
0.00998491
1.64499e-05
-1.928e-06
0.00998607
1.54198e-05
-1.56783e-06
0.00998712
1.4442e-05
-1.27237e-06
0.00998808
1.35154e-05
-1.03082e-06
0.00998895
1.26377e-05
-8.33902e-07
0.00998976
1.1806e-05
-6.73738e-07
0.0099905
1.10172e-05
-5.43717e-07
0.00999118
1.02681e-05
-4.38336e-07
0.00999182
9.55568e-06
-3.53037e-07
0.00999241
8.87699e-06
-2.8407e-07
0.00999296
8.22942e-06
-2.28354e-07
0.00999346
7.61063e-06
-1.83367e-07
0.00999393
7.01871e-06
-1.47052e-07
0.00999435
6.45219e-06
-1.17731e-07
0.00999475
5.91026e-06
-9.40395e-08
0.0099951
5.39291e-06
-7.48721e-08
0.00999543
4.90129e-06
-5.93376e-08
0.00999573
4.43805e-06
-4.67268e-08
0.00999599
4.00797e-06
-3.64828e-08
0.00999623
3.6188e-06
-2.81841e-08
0.00999645
3.28215e-06
-2.15659e-08
0.00999665
3.01533e-06
-1.73911e-08
2.83752e-06
-8.37581e-09
0.0100001
1.46221e-06
1.536e-07
0.0100004
4.18284e-06
4.10553e-07
0.0100009
6.69704e-06
6.49939e-07
0.0100016
8.99877e-06
9.05301e-07
0.0100024
1.1075e-05
1.20629e-06
0.0100032
1.29016e-05
1.5834e-06
0.010004
1.44398e-05
2.07015e-06
0.0100047
1.5634e-05
2.70466e-06
0.010005
1.64115e-05
3.53023e-06
0.0100049
1.66864e-05
4.59594e-06
0.0100039
1.63667e-05
5.95978e-06
0.0100019
1.53563e-05
7.67371e-06
0.00999833
1.35943e-05
9.77847e-06
0.00999287
1.10846e-05
1.22842e-05
0.00998507
7.94227e-06
1.51372e-05
0.00997463
4.44623e-06
1.81709e-05
0.00996154
1.08447e-06
2.10425e-05
0.00994634
-1.44134e-06
2.31694e-05
0.00993039
-2.30818e-06
2.37168e-05
0.00991598
-8.09239e-07
2.17392e-05
0.00990598
3.24586e-06
1.65947e-05
0.00990216
8.92989e-06
9.15711e-06
0.00990385
1.47088e-05
2.00086e-06
0.00990927
1.97219e-05
-3.35404e-06
0.00991668
2.35496e-05
-6.74088e-06
0.00992478
2.61089e-05
-8.46992e-06
0.00993273
2.75186e-05
-9.00602e-06
0.00994009
2.79824e-05
-8.77943e-06
0.00994666
2.77244e-05
-8.11961e-06
0.00995241
2.69519e-05
-7.2541e-06
0.0099574
2.58383e-05
-6.32777e-06
0.00996171
2.45199e-05
-5.42599e-06
0.00996543
2.30987e-05
-4.59426e-06
0.00996867
2.16473e-05
-3.85297e-06
0.00997149
2.02148e-05
-3.20749e-06
0.00997397
1.88324e-05
-2.65463e-06
0.00997617
1.75184e-05
-2.18684e-06
0.00997814
1.62817e-05
-1.79465e-06
0.0099799
1.5125e-05
-1.46817e-06
0.00998149
1.40471e-05
-1.19791e-06
0.00998294
1.30441e-05
-9.75207e-07
0.00998426
1.21109e-05
-7.92362e-07
0.00998546
1.12417e-05
-6.42707e-07
0.00998657
1.04305e-05
-5.20532e-07
0.00998759
9.67172e-06
-4.21008e-07
0.00998852
8.96e-06
-3.40085e-07
0.00998938
8.29049e-06
-2.74386e-07
0.00999018
7.65886e-06
-2.21112e-07
0.0099909
7.06134e-06
-1.77952e-07
0.00999157
6.49477e-06
-1.43003e-07
0.00999218
5.95666e-06
-1.14705e-07
0.00999274
5.44527e-06
-9.17789e-08
0.00999324
4.95978e-06
-7.31856e-08
0.0099937
4.50055e-06
-5.8082e-08
0.00999412
4.06947e-06
-4.5795e-08
0.00999449
3.67045e-06
-3.57925e-08
0.00999483
3.31016e-06
-2.76658e-08
0.00999513
2.99894e-06
-2.11499e-08
0.00999541
2.75229e-06
-1.73326e-08
2.58741e-06
-6.12524e-09
0.0100001