/*--------------------------------*- C++ -*----------------------------------*\
  =========                 |
  \\      /  F ield         | OpenFOAM: The Open Source CFD Toolbox
   \\    /   O peration     | Website:  https://openfoam.org
    \\  /    A nd           | Version:  dev
     \\/     M anipulation  |
\*---------------------------------------------------------------------------*/
FoamFile
{
    format      ascii;
    class       volVectorField;
    location    "400";
    object      U;
}
// * * * * * * * * * * * * * * * * * * * * * * * * * * * * * * * * * * * * * //

dimensions      [0 1 -1 0 0 0 0];

internalField   nonuniform List<vector> 
24000
(
(0.999993 2.64121e-05 5.42092e-06)
(0.999877 7.30314e-05 1.42569e-05)
(0.999653 0.000116138 2.24458e-05)
(0.99933 0.00015748 3.05482e-05)
(0.99891 0.000198681 3.92189e-05)
(0.99839 0.000241095 4.89898e-05)
(0.997764 0.000285751 6.02157e-05)
(0.997024 0.000333323 7.30496e-05)
(0.996159 0.000384003 8.73436e-05)
(0.995162 0.000437312 0.000102506)
(0.994028 0.000491834 0.000117316)
(0.992757 0.000544917 0.000129706)
(0.991363 0.000592362 0.000136578)
(0.989877 0.000628266 0.000133752)
(0.98835 0.000645139 0.000116182)
(0.986863 0.000634783 7.88035e-05)
(0.985522 0.000590112 1.80706e-05)
(0.984448 0.000507718 -6.60568e-05)
(0.983761 0.000390596 -0.000168342)
(0.983551 0.000251881 -0.000275774)
(0.983841 0.00010442 -0.000377895)
(0.984613 -3.3031e-05 -0.000461599)
(0.985778 -0.000147612 -0.000519939)
(0.987229 -0.00023275 -0.000551309)
(0.988852 -0.000287176 -0.000557815)
(0.990541 -0.00031351 -0.000543793)
(0.992211 -0.000316478 -0.00051435)
(0.993795 -0.000301748 -0.000474604)
(0.995249 -0.000274954 -0.000429111)
(0.996548 -0.000240911 -0.000381452)
(0.997682 -0.000203483 -0.000334282)
(0.998649 -0.000165561 -0.000289422)
(0.999457 -0.000129168 -0.000248007)
(1.00012 -9.5603e-05 -0.00021064)
(1.00065 -6.56031e-05 -0.000177539)
(1.00106 -3.94866e-05 -0.00014865)
(1.00138 -1.72782e-05 -0.000123744)
(1.00161 1.19166e-06 -0.000102493)
(1.00177 1.62102e-05 -8.45178e-05)
(1.00187 2.81262e-05 -6.94244e-05)
(1.00192 3.73109e-05 -5.68297e-05)
(1.00194 4.40702e-05 -4.64723e-05)
(1.00193 4.89185e-05 -3.78482e-05)
(1.00189 5.2135e-05 -3.06664e-05)
(1.00184 5.39167e-05 -2.48112e-05)
(1.00177 5.4532e-05 -2.00375e-05)
(1.0017 5.42035e-05 -1.61515e-05)
(1.00162 5.31186e-05 -1.29943e-05)
(1.00154 5.14359e-05 -1.04332e-05)
(1.00145 4.92885e-05 -8.35965e-06)
(1.00137 4.67909e-05 -6.6854e-06)
(1.00129 4.40425e-05 -5.33346e-06)
(1.00122 4.11316e-05 -4.2403e-06)
(1.00115 3.81404e-05 -3.35546e-06)
(1.00108 3.51507e-05 -2.63852e-06)
(1.00102 3.22494e-05 -2.05899e-06)
(1.00096 2.95379e-05 -1.59274e-06)
(1.00091 2.71125e-05 -1.2485e-06)
(1.00086 2.52656e-05 -8.84888e-07)
(1.0008 2.31826e-05 -1.47354e-06)
(0.999993 7.78259e-05 5.56226e-06)
(0.999881 0.000215977 1.45816e-05)
(0.999665 0.000343496 2.29576e-05)
(0.999352 0.000465828 3.12974e-05)
(0.998946 0.000587708 4.0286e-05)
(0.998443 0.000713088 5.05086e-05)
(0.997837 0.00084502 6.23801e-05)
(0.99712 0.000985513 7.61252e-05)
(0.996282 0.00113518 9.16801e-05)
(0.995313 0.00129268 0.000108542)
(0.994208 0.00145395 0.000125561)
(0.992967 0.00161132 0.000140685)
(0.991601 0.00175258 0.000150712)
(0.990136 0.00186044 0.00015114)
(0.988624 0.00191282 0.000136295)
(0.987142 0.0018853 0.000100105)
(0.985795 0.00175641 3.77937e-05)
(0.98471 0.00151544 -5.1641e-05)
(0.984013 0.00117094 -0.000162912)
(0.983801 0.000758347 -0.000281969)
(0.984106 0.000321267 -0.000394224)
(0.984896 -8.57384e-05 -0.000485138)
(0.986079 -0.000424523 -0.000547255)
(0.987542 -0.000675617 -0.000579314)
(0.989166 -0.000835608 -0.000584258)
(0.990847 -0.000912548 -0.000567313)
(0.992497 -0.000920687 -0.000534361)
(0.994055 -0.000876944 -0.000491063)
(0.995479 -0.00079794 -0.000442283)
(0.996745 -0.000697859 -0.00039176)
(0.997845 -0.000588031 -0.000342199)
(0.99878 -0.000476913 -0.000295406)
(0.999559 -0.000370402 -0.000252467)
(1.00019 -0.000272276 -0.000213924)
(1.0007 -0.000184664 -0.000179929)
(1.0011 -0.000108475 -0.00015037)
(1.0014 -4.37615e-05 -0.00012497)
(1.00161 9.98628e-06 -0.000103358)
(1.00176 5.3619e-05 -8.51213e-05)
(1.00185 8.81624e-05 -6.98428e-05)
(1.0019 0.000114694 -5.71299e-05)
(1.00191 0.000134166 -4.66857e-05)
(1.0019 0.000148133 -3.79516e-05)
(1.00186 0.000157197 -3.07476e-05)
(1.00181 0.000162107 -2.48662e-05)
(1.00174 0.00016362 -2.00728e-05)
(1.00167 0.000162383 -1.61735e-05)
(1.00159 0.000158942 -1.30076e-05)
(1.00151 0.000153761 -1.04408e-05)
(1.00142 0.00014723 -8.36391e-06)
(1.00134 0.000139683 -6.68782e-06)
(1.00127 0.000131412 -5.33458e-06)
(1.00119 0.000122675 -4.24064e-06)
(1.00112 0.000113713 -3.35536e-06)
(1.00106 0.000104766 -2.63817e-06)
(1.001 9.60896e-05 -2.05835e-06)
(1.00094 8.79814e-05 -1.59281e-06)
(1.00089 8.07533e-05 -1.2368e-06)
(1.00084 7.50494e-05 -8.82822e-07)
(1.00078 7.00301e-05 -1.51816e-06)
(0.999993 0.000125576 5.7914e-06)
(0.999889 0.00034917 1.51807e-05)
(0.999687 0.000555428 2.39182e-05)
(0.999396 0.000753257 3.27065e-05)
(0.999016 0.00095017 4.23077e-05)
(0.998546 0.00115245 5.34018e-05)
(0.997979 0.00136502 6.65206e-05)
(0.997307 0.00159117 8.20331e-05)
(0.99652 0.00183202 0.000100048)
(0.995607 0.00208566 0.000120251)
(0.994561 0.00234598 0.000141659)
(0.993379 0.00260116 0.000162295)
(0.992068 0.0028322 0.000178805)
(0.990649 0.00301186 0.000186122)
(0.989168 0.00310488 0.000177378)
(0.987696 0.00307135 0.000144477)
(0.98634 0.00287487 8.00092e-05)
(0.985232 0.0024956 -1.92998e-05)
(0.984514 0.00194455 -0.000148738)
(0.984297 0.00127455 -0.000291112)
(0.984624 0.000565081 -0.000424454)
(0.985447 -9.40634e-05 -0.000530308)
(0.986663 -0.000640654 -0.000600159)
(0.988146 -0.00104359 -0.000633627)
(0.989771 -0.00129857 -0.000635463)
(0.991432 -0.00141964 -0.00061274)
(0.993044 -0.00143072 -0.000572898)
(0.99455 -0.00135967 -0.000522669)
(0.995913 -0.00123317 -0.000467508)
(0.997115 -0.00107386 -0.000411451)
(0.998151 -0.000899728 -0.000357288)
(0.999025 -0.000724085 -0.000306787)
(0.999747 -0.000556162 -0.000260935)
(1.00033 -0.000401828 -0.000220147)
(1.0008 -0.000264349 -0.000184452)
(1.00115 -0.00014508 -0.000153622)
(1.00142 -4.40425e-05 -0.000127285)
(1.00161 3.96171e-05 -0.000104989)
(1.00174 0.000107274 -8.62601e-05)
(1.00182 0.000160569 -7.06337e-05)
(1.00185 0.000201207 -5.76887e-05)
(1.00186 0.000230889 -4.70493e-05)
(1.00184 0.000251816 -3.81767e-05)
(1.00179 0.000264972 -3.09018e-05)
(1.00174 0.000271631 -2.49673e-05)
(1.00167 0.000272974 -2.01367e-05)
(1.0016 0.000270014 -1.62125e-05)
(1.00152 0.000263614 -1.30302e-05)
(1.00144 0.000254503 -1.04528e-05)
(1.00136 0.000243294 -8.36979e-06)
(1.00128 0.000230517 -6.69023e-06)
(1.00121 0.000216631 -5.33457e-06)
(1.00114 0.000202043 -4.23924e-06)
(1.00107 0.000187136 -3.35321e-06)
(1.00101 0.000172292 -2.63566e-06)
(1.00095 0.000157925 -2.05553e-06)
(1.0009 0.000144512 -1.59033e-06)
(1.00085 0.000132605 -1.23023e-06)
(1.0008 0.000123013 -8.83539e-07)
(1.00075 0.000116125 -1.5031e-06)
(0.999994 0.000168054 6.10514e-06)
(0.9999 0.000467231 1.6014e-05)
(0.999719 0.00074349 2.52557e-05)
(0.999457 0.00100823 3.46669e-05)
(0.999116 0.00127129 4.51261e-05)
(0.998693 0.00154092 5.74462e-05)
(0.998182 0.00182361 7.23291e-05)
(0.997574 0.00212381 9.03589e-05)
(0.99686 0.00244321 0.00011191)
(0.996028 0.00277973 0.000136971)
(0.995069 0.00312597 0.000164862)
(0.993974 0.00346731 0.000193808)
(0.992746 0.00377983 0.000220378)
(0.991399 0.00402871 0.000238846)
(0.989967 0.00416806 0.000240733)
(0.988515 0.00414425 0.000214978)
(0.987148 0.00390592 0.000149883)
(0.986005 0.0034214 3.79243e-05)
(0.985249 0.0026986 -0.000118343)
(0.98502 0.00180322 -0.000296654)
(0.985369 0.00085186 -0.000463376)
(0.986235 -2.99967e-05 -0.000592761)
(0.987492 -0.000757413 -0.000674702)
(0.988998 -0.00128983 -0.000710482)
(0.990618 -0.00162371 -0.000707807)
(0.992245 -0.00177976 -0.000676688)
(0.993799 -0.00179157 -0.000626911)
(0.995228 -0.00169698 -0.000566758)
(0.996504 -0.00153124 -0.000502527)
(0.997615 -0.00132406 -0.000438657)
(0.99856 -0.00109873 -0.00037804)
(0.999348 -0.000872396 -0.000322369)
(0.999991 -0.000656797 -0.000272476)
(1.00051 -0.000459326 -0.000228591)
(1.00091 -0.000284028 -0.000190559)
(1.00122 -0.000132507 -0.000157994)
(1.00144 -4.67763e-06 -0.000130381)
(1.0016 0.000100645 -0.000107159)
(1.0017 0.000185294 -8.7767e-05)
(1.00176 0.000251424 -7.1675e-05)
(1.00178 0.000301293 -5.84077e-05)
(1.00177 0.000337288 -4.75038e-05)
(1.00174 0.000361863 -3.84714e-05)
(1.00169 0.000376479 -3.1095e-05)
(1.00163 0.000382814 -2.50899e-05)
(1.00157 0.000382382 -2.02117e-05)
(1.00149 0.000376484 -1.62561e-05)
(1.00142 0.000366226 -1.30536e-05)
(1.00134 0.000352547 -1.04638e-05)
(1.00127 0.000336236 -8.37392e-06)
(1.00119 0.000317973 -6.69033e-06)
(1.00112 0.00029835 -5.33223e-06)
(1.00106 0.000277893 -4.23567e-06)
(1.00099 0.0002571 -3.3492e-06)
(1.00094 0.000236475 -2.63164e-06)
(1.00088 0.000216568 -2.05162e-06)
(1.00083 0.000198024 -1.58682e-06)
(1.00078 0.000181618 -1.22553e-06)
(1.00074 0.000168389 -8.86328e-07)
(1.00069 0.000159307 -1.44975e-06)
(0.999995 0.000203247 6.47968e-06)
(0.999914 0.000565412 1.70152e-05)
(0.999759 0.000899984 2.68621e-05)
(0.999534 0.00122025 3.70209e-05)
(0.99924 0.00153768 4.85152e-05)
(0.998875 0.00186194 6.23213e-05)
(0.998433 0.00220066 7.9355e-05)
(0.997907 0.00255917 0.000100478)
(0.997284 0.00293973 0.000126421)
(0.996555 0.00334039 0.000157603)
(0.995705 0.00375331 0.000193817)
(0.994724 0.00416258 0.000233706)
(0.993607 0.00454177 0.000273987)
(0.992356 0.00485166 0.000308436)
(0.990996 0.00503956 0.000326835)
(0.989579 0.00504184 0.000314499)
(0.988203 0.00479378 0.000253718)
(0.987013 0.00424958 0.000129859)
(0.986196 0.00340774 -5.98756e-05)
(0.985934 0.00233875 -0.000287498)
(0.986297 0.00119312 -0.000501551)
(0.987205 0.00013268 -0.000664272)
(0.988502 -0.000737063 -0.000763432)
(0.990025 -0.00136882 -0.000802996)
(0.99163 -0.00176123 -0.000794973)
(0.993207 -0.00194199 -0.000753503)
(0.994683 -0.00195384 -0.000691505)
(0.996015 -0.00184259 -0.000619187)
(0.997182 -0.00165007 -0.000543923)
(0.998179 -0.00141106 -0.000470623)
(0.999014 -0.00115255 -0.000402273)
(0.999698 -0.000894123 -0.000340455)
(1.00025 -0.000649057 -0.000285788)
(1.00068 -0.000425598 -0.000238269)
(1.00101 -0.000228157 -0.000197513)
(1.00126 -5.83801e-05 -0.000162935)
(1.00144 8.3986e-05 -0.000133853)
(1.00155 0.000200416 -0.000109573)
(1.00162 0.0002931 -8.94287e-05)
(1.00166 0.000364579 -7.28104e-05)
(1.00166 0.000417541 -5.91689e-05)
(1.00164 0.000454812 -4.79751e-05)
(1.0016 0.000478913 -3.87726e-05)
(1.00155 0.000491705 -3.12847e-05)
(1.00149 0.000495144 -2.52042e-05)
(1.00142 0.000490958 -2.02763e-05)
(1.00136 0.000480636 -1.62889e-05)
(1.00128 0.00046544 -1.30669e-05)
(1.00121 0.00044644 -1.04659e-05)
(1.00114 0.000424541 -8.37042e-06)
(1.00108 0.000400522 -6.68371e-06)
(1.00101 0.00037506 -5.32425e-06)
(1.00095 0.000348761 -4.22747e-06)
(1.00089 0.000322206 -3.34144e-06)
(1.00084 0.000295992 -2.62467e-06)
(1.00079 0.00027078 -2.04548e-06)
(1.00074 0.00024736 -1.58149e-06)
(1.0007 0.000226704 -1.22002e-06)
(1.00066 0.000210085 -8.89161e-07)
(1.00062 0.000198835 -1.37697e-06)
(0.999996 0.000229932 6.88102e-06)
(0.99993 0.000640372 1.80962e-05)
(0.999803 0.0010194 2.85926e-05)
(0.99962 0.00138185 3.95623e-05)
(0.99938 0.00173978 5.21797e-05)
(0.999081 0.00210361 6.76053e-05)
(0.998718 0.00248156 8.69967e-05)
(0.998283 0.00287942 0.00011154)
(0.997766 0.00329982 0.000142391)
(0.997155 0.00374106 0.000180518)
(0.996433 0.00419551 0.000226369)
(0.995588 0.00464737 0.000279279)
(0.994604 0.0050701 0.000336493)
(0.993476 0.00542386 0.000391742)
(0.992212 0.00565409 0.000433447)
(0.990849 0.00569295 0.000443185)
(0.989472 0.00546732 0.000396016)
(0.988224 0.00491778 0.000266813)
(0.98732 0.00402846 4.20952e-05)
(0.986992 0.00286114 -0.000247154)
(0.987344 0.00158949 -0.000523889)
(0.988279 0.000411014 -0.000731164)
(0.989603 -0.000551021 -0.000853966)
(0.99113 -0.00124537 -0.000900043)
(0.992704 -0.00167333 -0.00088717)
(0.994215 -0.00186947 -0.000834814)
(0.995596 -0.00188326 -0.000759645)
(0.996814 -0.00176583 -0.000674188)
(0.997857 -0.00156301 -0.000587061)
(0.99873 -0.00131234 -0.000503692)
(0.999444 -0.0010425 -0.000427149)
(1.00002 -0.000774084 -0.000358867)
(1.00047 -0.000520857 -0.000299222)
(1.00081 -0.000291232 -0.000247942)
(1.00107 -8.95985e-05 -0.000204392)
(1.00125 8.25306e-05 -0.000167766)
(1.00138 0.000225597 -0.000137204)
(1.00146 0.000341289 -0.000111869)
(1.0015 0.000432013 -9.09821e-05)
(1.00151 0.000500535 -7.38465e-05)
(1.00149 0.000549788 -5.98331e-05)
(1.00146 0.000582726 -4.83689e-05)
(1.00142 0.000601844 -3.90104e-05)
(1.00137 0.000609256 -3.14215e-05)
(1.00131 0.000607035 -2.52752e-05)
(1.00125 0.000596995 -2.03059e-05)
(1.00118 0.000580694 -1.62938e-05)
(1.00112 0.000559454 -1.30581e-05)
(1.00105 0.000534393 -1.04508e-05)
(1.00099 0.000506462 -8.35327e-06)
(1.00093 0.000476479 -6.66626e-06)
(1.00087 0.000445153 -5.3078e-06)
(1.00082 0.00041313 -4.21271e-06)
(1.00077 0.000381036 -3.32865e-06)
(1.00072 0.000349527 -2.61387e-06)
(1.00068 0.000319345 -2.03648e-06)
(1.00064 0.000291394 -1.57393e-06)
(1.0006 0.000266812 -1.21288e-06)
(1.00057 0.00024709 -8.91323e-07)
(1.00053 0.000233813 -1.28741e-06)
(0.999997 0.000247384 7.27399e-06)
(0.999947 0.000690039 1.91628e-05)
(0.999851 0.00109875 3.02987e-05)
(0.999711 0.00148871 4.20682e-05)
(0.999528 0.00187204 5.57971e-05)
(0.999299 0.00225903 7.28292e-05)
(0.999019 0.00265784 9.45702e-05)
(0.998682 0.00307416 0.000122544)
(0.998277 0.00351053 0.000158371)
(0.997791 0.00396538 0.000203638)
(0.997209 0.0044315 0.000259591)
(0.996512 0.00489414 0.000326514)
(0.995679 0.00532862 0.000402634)
(0.994693 0.00569797 0.000482339)
(0.993548 0.00595118 0.000553637)
(0.992261 0.00602363 0.000595262)
(0.990897 0.00584258 0.000575086)
(0.98959 0.00534161 0.000454955)
(0.988569 0.00449026 0.000203939)
(0.988126 0.00332563 -0.000153735)
(0.988425 0.0020206 -0.000508642)
(0.989354 0.000802833 -0.00077309)
(0.99068 -0.000189697 -0.000927889)
(0.992189 -0.000903998 -0.00098558)
(0.993713 -0.00134345 -0.000970821)
(0.995143 -0.00154694 -0.000909372)
(0.996419 -0.00156711 -0.000822225)
(0.997517 -0.00145699 -0.00072453)
(0.998433 -0.00126327 -0.000626294)
(0.999179 -0.00102362 -0.000533514)
(0.999774 -0.000766413 -0.000449355)
(1.00024 -0.000511754 -0.000375112)
(1.00059 -0.000272907 -0.000310916)
(1.00085 -5.78422e-05 -0.000256233)
(1.00104 0.000129398 -0.000210183)
(1.00117 0.000287548 -0.000171747)
(1.00125 0.000417211 -0.000139897)
(1.00129 0.000520171 -0.000113657)
(1.00131 0.000598883 -9.21454e-05)
(1.0013 0.000656143 -7.45785e-05)
(1.00128 0.000694886 -6.02578e-05)
(1.00124 0.000717935 -4.85855e-05)
(1.00119 0.000727673 -3.9114e-05)
(1.00114 0.000726272 -3.14548e-05)
(1.00109 0.000715763 -2.5267e-05)
(1.00103 0.000697907 -2.02754e-05)
(1.00097 0.000674217 -1.62533e-05)
(1.00092 0.000645975 -1.3015e-05)
(1.00086 0.000614263 -1.04099e-05)
(1.00081 0.000580003 -8.31631e-06)
(1.00076 0.000543991 -6.63377e-06)
(1.00071 0.000506921 -5.27999e-06)
(1.00067 0.000469433 -4.18942e-06)
(1.00062 0.000432158 -3.30948e-06)
(1.00059 0.000395776 -2.59834e-06)
(1.00055 0.000361079 -2.02399e-06)
(1.00052 0.000329051 -1.56374e-06)
(1.00049 0.000300957 -1.20375e-06)
(1.00046 0.000278483 -8.92727e-07)
(1.00043 0.000263402 -1.18288e-06)
(0.999998 0.00025547 7.62451e-06)
(0.999964 0.000714016 2.01232e-05)
(0.999897 0.00113737 3.1835e-05)
(0.999801 0.00153996 4.4321e-05)
(0.999675 0.00193337 5.90491e-05)
(0.999515 0.00232694 7.75227e-05)
(0.999318 0.00272809 0.000101376)
(0.999078 0.00314171 0.000132448)
(0.998784 0.00356972 0.000172799)
(0.998425 0.00401018 0.00022463)
(0.997982 0.00445614 0.000290014)
(0.997434 0.00489412 0.000370322)
(0.996757 0.00530241 0.000465086)
(0.995924 0.0056493 0.000570043)
(0.994913 0.00589188 0.000674049)
(0.993723 0.0059763 0.000754945)
(0.992392 0.00584127 0.000775607)
(0.991034 0.00542676 0.00068551)
(0.989872 0.00469704 0.000432256)
(0.989258 0.00365697 1.42045e-05)
(0.989437 0.00243634 -0.000429879)
(0.990311 0.00127479 -0.000764237)
(0.9916 0.000324119 -0.000961503)
(0.993063 -0.000362056 -0.00103919)
(0.994519 -0.000787194 -0.00102908)
(0.99586 -0.000990013 -0.00096365)
(0.99703 -0.00102171 -0.000868621)
(0.998011 -0.000933077 -0.000762014)
(0.99881 -0.000768187 -0.000655378)
(0.999442 -0.000562104 -0.000555388)
(0.999931 -0.000340915 -0.000465388)
(1.0003 -0.000122857 -0.000386597)
(1.00057 8.01863e-05 -0.000318966)
(1.00077 0.000261196 -0.000261752)
(1.0009 0.000416717 -0.000213875)
(1.00098 0.000545789 -0.000174149)
(1.00103 0.000649111 -0.000141404)
(1.00105 0.00072842 -0.00011456)
(1.00104 0.000786041 -9.26495e-05)
(1.00103 0.000824585 -7.48156e-05)
(1.001 0.000846758 -6.0309e-05)
(1.00096 0.000855037 -4.85301e-05)
(1.00092 0.000851599 -3.9017e-05)
(1.00087 0.000838482 -3.13384e-05)
(1.00083 0.000817518 -2.51475e-05)
(1.00078 0.000790292 -2.01623e-05)
(1.00073 0.000758162 -1.61515e-05)
(1.00069 0.000722276 -1.29267e-05)
(1.00065 0.000683603 -1.03354e-05)
(1.0006 0.000642969 -8.25426e-06)
(1.00056 0.000601092 -6.58267e-06)
(1.00053 0.000558601 -5.23843e-06)
(1.00049 0.00051609 -4.15599e-06)
(1.00046 0.00047416 -3.28285e-06)
(1.00043 0.000433484 -2.57735e-06)
(1.00041 0.000394866 -2.00752e-06)
(1.00038 0.000359335 -1.55059e-06)
(1.00036 0.000328244 -1.19231e-06)
(1.00034 0.000303424 -8.93051e-07)
(1.00032 0.00028685 -1.06572e-06)
(0.999999 0.000254632 7.90384e-06)
(0.999979 0.000713417 2.08998e-05)
(0.999941 0.00113698 3.30774e-05)
(0.999886 0.00153815 4.61369e-05)
(0.999812 0.00192702 6.16559e-05)
(0.999718 0.00231171 8.12739e-05)
(0.999599 0.00269801 0.000106798)
(0.999448 0.00308949 0.000140316)
(0.999258 0.00348678 0.000184251)
(0.999014 0.00388704 0.000241311)
(0.9987 0.0042831 0.000314286)
(0.998293 0.00466249 0.000405544)
(0.997762 0.00500657 0.000515957)
(0.997076 0.00528991 0.000642936)
(0.9962 0.00548018 0.000777167)
(0.995115 0.0055393 0.000897813)
(0.993836 0.0054264 0.000966843)
(0.992449 0.00510239 0.000926868)
(0.991146 0.00454254 0.000708867)
(0.990306 0.00374009 0.000266917)
(0.990281 0.00274434 -0.000262524)
(0.991029 0.0017502 -0.000677883)
(0.992233 0.00092395 -0.000929732)
(0.993617 0.000320491 -0.00103914)
(0.994992 -6.04194e-05 -0.00104419)
(0.996242 -0.000251433 -0.000983622)
(0.997315 -0.000296908 -0.000888031)
(0.998198 -0.000240821 -0.000778471)
(0.9989 -0.000121015 -0.00066822)
(0.999444 3.26914e-05 -0.000564815)
(0.999853 0.000198361 -0.000471952)
(1.00015 0.000360836 -0.000390926)
(1.00037 0.000510372 -0.000321641)
(1.00051 0.000641322 -0.000263252)
(1.00061 0.000751003 -0.000214577)
(1.00067 0.000838786 -0.000174333)
(1.0007 0.000905392 -0.000141273)
(1.0007 0.000952375 -0.000114259)
(1.0007 0.000981763 -9.22753e-05)
(1.00068 0.00099582 -7.44001e-05)
(1.00066 0.000996774 -5.98661e-05)
(1.00063 0.00098663 -4.81319e-05)
(1.0006 0.000967285 -3.86658e-05)
(1.00056 0.000940444 -3.10354e-05)
(1.00053 0.000907616 -2.48915e-05)
(1.0005 0.000870107 -1.99494e-05)
(1.00046 0.000829028 -1.59767e-05)
(1.00043 0.00078532 -1.27849e-05)
(1.00041 0.000739773 -1.02216e-05)
(1.00038 0.00069306 -8.16344e-06)
(1.00035 0.000645772 -6.51051e-06)
(1.00033 0.000598438 -5.18151e-06)
(1.00031 0.000551569 -4.11135e-06)
(1.00029 0.000505707 -3.24808e-06)
(1.00027 0.000461484 -2.55045e-06)
(1.00025 0.000419688 -1.98677e-06)
(1.00024 0.00038136 -1.53426e-06)
(1.00022 0.000347897 -1.17841e-06)
(1.00021 0.000321211 -8.92878e-07)
(1.00019 0.000303503 -9.38385e-07)
(1 0.000245813 8.0913e-06)
(0.999993 0.000690709 2.14365e-05)
(0.99998 0.00110146 3.39349e-05)
(0.999961 0.00148861 4.73828e-05)
(0.999934 0.00186028 6.34259e-05)
(0.999897 0.00222262 8.3786e-05)
(0.999845 0.00257966 0.000110388)
(0.999773 0.00293304 0.00014548)
(0.999671 0.00328165 0.000191706)
(0.999527 0.00362124 0.000252112)
(0.999322 0.00394398 0.000329974)
(0.999031 0.00423797 0.000428387)
(0.998624 0.00448728 0.000549295)
(0.998062 0.00467258 0.000691651)
(0.997303 0.00477259 0.000848258)
(0.996315 0.00476661 0.00100089)
(0.995093 0.00463823 0.0011139)
(0.993694 0.00437846 0.00112927)
(0.99228 0.00398819 0.000970656)
(0.991203 0.00347832 0.000563415)
(0.990897 0.00282441 -6.69834e-06)
(0.991429 0.00210995 -0.000499498)
(0.992486 0.00149602 -0.00081429)
(0.993755 0.0010373 -0.000967874)
(0.995034 0.000738477 -0.00100127)
(0.996199 0.000578292 -0.000957464)
(0.997194 0.000524609 -0.000871401)
(0.998005 0.000544949 -0.000767148)
(0.998644 0.000611214 -0.000659864)
(0.999133 0.000701332 -0.000558202)
(0.999497 0.000799206 -0.000466463)
(0.999762 0.000893852 -0.000386256)
(0.99995 0.000978341 -0.00031763)
(1.00008 0.00104877 -0.00025981)
(1.00016 0.00110341 -0.00021164)
(1.00022 0.00114201 -0.000171847)
(1.00025 0.00116527 -0.000139191)
(1.00026 0.00117449 -0.000112541)
(1.00027 0.00117131 -9.08601e-05)
(1.00026 0.00115738 -7.31773e-05)
(1.00025 0.00113439 -5.88813e-05)
(1.00024 0.00110391 -4.73379e-05)
(1.00023 0.00106734 -3.80264e-05)
(1.00021 0.00102594 -3.05237e-05)
(1.0002 0.000980821 -2.44844e-05)
(1.00018 0.000932937 -1.9627e-05)
(1.00017 0.000883088 -1.57225e-05)
(1.00016 0.000831952 -1.25854e-05)
(1.00015 0.000780095 -1.00658e-05)
(1.00014 0.000727998 -8.04224e-06)
(1.00013 0.000676094 -6.41645e-06)
(1.00012 0.000624781 -5.1087e-06)
(1.00011 0.000574462 -4.05522e-06)
(1.0001 0.000525596 -3.205e-06)
(1.00009 0.000478751 -2.5176e-06)
(1.00009 0.000434674 -1.96177e-06)
(1.00008 0.000394385 -1.51487e-06)
(1.00008 0.000359286 -1.16253e-06)
(1.00007 0.000331314 -8.92413e-07)
(1.00007 0.000312851 -8.02454e-07)
(1 0.000230335 8.17643e-06)
(1 0.000649389 2.17041e-05)
(1.00001 0.00103631 3.43605e-05)
(1.00002 0.00139897 4.799e-05)
(1.00004 0.00174315 6.42631e-05)
(1.00004 0.00207284 8.49281e-05)
(1.00005 0.00238994 0.000111951)
(1.00004 0.00269402 0.000147636)
(1.00001 0.00298201 0.000194699)
(0.999938 0.00324809 0.000256305)
(0.999815 0.00348362 0.000335956)
(0.999611 0.00367691 0.000437098)
(0.999293 0.00381428 0.000562271)
(0.998819 0.00388204 0.000711489)
(0.998145 0.00386917 0.000879358)
(0.997228 0.00377149 0.00105056)
(0.996051 0.00359645 0.00119374)
(0.994652 0.00336591 0.00125578)
(0.993164 0.00311136 0.00116332)
(0.991881 0.00286792 0.000837674)
(0.991259 0.00259079 0.000292496)
(0.991493 0.00224442 -0.000248391)
(0.992335 0.00191861 -0.000620865)
(0.993447 0.00166368 -0.000823675)
(0.994613 0.00148846 -0.000895623)
(0.995697 0.00138551 -0.000880127)
(0.996634 0.00133868 -0.000814326)
(0.997406 0.00133052 -0.000724554)
(0.998018 0.0013454 -0.000627698)
(0.998492 0.00137099 -0.000533659)
(0.99885 0.00139839 -0.000447586)
(0.999117 0.00142175 -0.000371654)
(0.999313 0.00143753 -0.000306293)
(0.999456 0.00144396 -0.000250991)
(0.999559 0.00144046 -0.000204773)
(0.999633 0.00142727 -0.0001665)
(0.999687 0.00140512 -0.000135021)
(0.999726 0.001375 -0.000109261)
(0.999755 0.00133805 -8.8256e-05)
(0.999777 0.00129541 -7.11715e-05)
(0.999794 0.00124821 -5.73278e-05)
(0.999809 0.00119742 -4.61326e-05)
(0.999821 0.00114392 -3.70917e-05)
(0.999832 0.00108849 -2.97997e-05)
(0.999841 0.00103177 -2.39246e-05)
(0.99985 0.000974346 -1.91947e-05)
(0.999859 0.000916669 -1.53893e-05)
(0.999867 0.000859129 -1.23293e-05)
(0.999875 0.000802046 -9.86926e-06)
(0.999883 0.000745694 -7.89179e-06)
(0.99989 0.000690324 -6.30127e-06)
(0.999896 0.000636188 -5.02069e-06)
(0.999902 0.000583572 -3.98818e-06)
(0.999908 0.000532834 -3.15412e-06)
(0.999914 0.000484463 -2.47919e-06)
(0.999919 0.000439143 -1.93285e-06)
(0.999923 0.000397848 -1.49275e-06)
(0.999927 0.000361951 -1.14495e-06)
(0.999931 0.000333382 -8.91657e-07)
(0.999936 0.000314542 -6.61169e-07)
(1 0.000209748 8.15975e-06)
(1.00001 0.000593585 2.17023e-05)
(1.00004 0.000948044 3.43539e-05)
(1.00007 0.00127819 4.79595e-05)
(1.00011 0.00158743 6.41723e-05)
(1.00016 0.00187755 8.47161e-05)
(1.0002 0.00214833 0.000111526)
(1.00024 0.00239733 0.00014686)
(1.00025 0.00261967 0.000193366)
(1.00024 0.00280803 0.000254104)
(1.00016 0.00295305 0.000332523)
(1.00001 0.00304344 0.000432185)
(0.999746 0.0030674 0.000555646)
(0.999321 0.00301622 0.000703475)
(0.99869 0.00288767 0.000871587)
(0.99781 0.00269135 0.00104739)
(0.996656 0.00245411 0.00120454)
(0.995254 0.0022227 0.00129764)
(0.993716 0.00205547 0.00126213)
(0.992284 0.00200776 0.00102626)
(0.991372 0.00206041 0.00056294)
(0.991267 0.0020983 3.47227e-05)
(0.991827 0.00209855 -0.00037034)
(0.992736 0.00208624 -0.00061753)
(0.993765 0.00207009 -0.000732864)
(0.994768 0.00205369 -0.000754525)
(0.995664 0.00203676 -0.000718361)
(0.996423 0.0020176 -0.000651573)
(0.997045 0.00199427 -0.000572279)
(0.997541 0.00196524 -0.000491573)
(0.997931 0.00192976 -0.00041561)
(0.998236 0.00188774 -0.000347347)
(0.998475 0.00183956 -0.000287808)
(0.998661 0.00178592 -0.000236927)
(0.998809 0.00172765 -0.000194068)
(0.998928 0.00166563 -0.000158344)
(0.999026 0.00160072 -0.000128799)
(0.999107 0.00153373 -0.00010451)
(0.999177 0.00146538 -8.46324e-05)
(0.999238 0.00139629 -6.84213e-05)
(0.999292 0.00132701 -5.52384e-05)
(0.999341 0.00125797 -4.45434e-05)
(0.999386 0.00118952 -3.58827e-05)
(0.999428 0.00112194 -2.888e-05)
(0.999467 0.00105547 -2.3225e-05)
(0.999503 0.000990275 -1.86629e-05)
(0.999537 0.000926483 -1.49854e-05)
(0.999568 0.000864195 -1.20228e-05)
(0.999598 0.000803483 -9.63682e-06)
(0.999625 0.000744415 -7.71548e-06)
(0.999651 0.000687066 -6.16763e-06)
(0.999674 0.000631543 -4.91957e-06)
(0.999696 0.000578007 -3.91184e-06)
(0.999716 0.000526713 -3.09667e-06)
(0.999734 0.000478061 -2.43616e-06)
(0.99975 0.000432658 -1.90074e-06)
(0.999765 0.00039141 -1.4685e-06)
(0.999779 0.000355633 -1.12598e-06)
(0.999791 0.000327216 -8.9043e-07)
(0.999806 0.00030841 -5.18721e-07)
(1 0.000185665 8.05207e-06)
(1.00002 0.000527618 2.14581e-05)
(1.00005 0.000843467 3.39587e-05)
(1.0001 0.00113566 4.73577e-05)
(1.00017 0.00140538 6.32545e-05)
(1.00024 0.0016524 8.33051e-05)
(1.00031 0.00187467 0.000109355)
(1.00037 0.00206806 0.000143537)
(1.00041 0.00222625 0.000188311)
(1.00042 0.00234084 0.000246428)
(1.00038 0.00240231 0.000321167)
(1.00024 0.00239962 0.000415858)
(0.99999 0.00232315 0.000532697)
(0.999573 0.00216842 0.000672323)
(0.998947 0.00194018 0.000831381)
(0.998068 0.00165821 0.000999401)
(0.996911 0.00136287 0.00115461)
(0.995496 0.00111706 0.0012598)
(0.993923 0.000997206 0.00126194)
(0.992396 0.00107195 0.0011023)
(0.99126 0.00134808 0.000748128)
(0.990827 0.00169587 0.000288643)
(0.991066 0.00199853 -0.000109207)
(0.991732 0.00223417 -0.000382705)
(0.992599 0.00239591 -0.000535431)
(0.993511 0.00249036 -0.000595299)
(0.994371 0.00252835 -0.000593161)
(0.995136 0.0025216 -0.000554643)
(0.99579 0.00248105 -0.000497971)
(0.996338 0.00241588 -0.000434957)
(0.996792 0.00233361 -0.000372645)
(0.997165 0.0022402 -0.000314829)
(0.997474 0.00214023 -0.000263244)
(0.997731 0.00203712 -0.000218395)
(0.997947 0.00193335 -0.000180099)
(0.998131 0.00183064 -0.000147821)
(0.99829 0.00173014 -0.000120877)
(0.998429 0.00163259 -9.85469e-05)
(0.998552 0.00153841 -8.0145e-05)
(0.998662 0.00144781 -6.50462e-05)
(0.998762 0.00136085 -5.27005e-05)
(0.998853 0.0012775 -4.26347e-05)
(0.998937 0.00119763 -3.4447e-05)
(0.999014 0.00112111 -2.77999e-05)
(0.999085 0.00104777 -2.24123e-05)
(0.999152 0.000977436 -1.80513e-05)
(0.999213 0.000909939 -1.45251e-05)
(0.999269 0.000845119 -1.16764e-05)
(0.999322 0.00078283 -9.37624e-06)
(0.99937 0.000722953 -7.51947e-06)
(0.999415 0.000665406 -6.02027e-06)
(0.999456 0.000610161 -4.80891e-06)
(0.999493 0.000557265 -3.82889e-06)
(0.999527 0.000506876 -3.03467e-06)
(0.999559 0.000459302 -2.39003e-06)
(0.999587 0.000415065 -1.86657e-06)
(0.999612 0.000374988 -1.44301e-06)
(0.999635 0.000340293 -1.10617e-06)
(0.999655 0.000312784 -8.88332e-07)
(0.99968 0.000294492 -3.79051e-07)
(1 0.000159607 7.87264e-06)
(1.00002 0.000455583 2.10207e-05)
(1.00006 0.000729052 3.32544e-05)
(1.00013 0.000980237 4.6304e-05)
(1.0002 0.00120849 6.16881e-05)
(1.00028 0.00141196 8.09634e-05)
(1.00037 0.00158719 0.000105845)
(1.00044 0.0017289 0.000138285)
(1.0005 0.0018299 0.000180464)
(1.00051 0.00188135 0.000234629)
(1.00046 0.0018741 0.000304209)
(1.00032 0.00179755 0.000391459)
(1.00005 0.00164461 0.000498373)
(0.999613 0.00141431 0.000625295)
(0.99896 0.00111654 0.000769201)
(0.998053 0.000777678 0.00092124)
(0.996871 0.000445551 0.00106359)
(0.995435 0.000190448 0.00116655)
(0.993833 9.5778e-05 0.00118856)
(0.992244 0.000234041 0.00108416)
(0.990956 0.000623186 0.000826117)
(0.990252 0.00115718 0.000460728)
(0.990184 0.00167949 0.000108276)
(0.990586 0.00212015 -0.000161278)
(0.991266 0.00244555 -0.000334356)
(0.992068 0.00265523 -0.00042456)
(0.992886 0.00276325 -0.000454176)
(0.993659 0.00278917 -0.00044452)
(0.994357 0.00275335 -0.000412267)
(0.994973 0.00267384 -0.00036906)
(0.995509 0.00256544 -0.000322392)
(0.995971 0.0024397 -0.000276729)
(0.99637 0.00230523 -0.00023448)
(0.996716 0.00216816 -0.000196749)
(0.997017 0.00203267 -0.000163848)
(0.997281 0.00190143 -0.000135642)
(0.997514 0.00177603 -0.000111761)
(0.997721 0.00165728 -9.17302e-05)
(0.997906 0.00154547 -7.50503e-05)
(0.998073 0.00144052 -6.12399e-05)
(0.998225 0.00134217 -4.98574e-05)
(0.998363 0.00124999 -4.05112e-05)
(0.998489 0.00116353 -3.28609e-05)
(0.998604 0.0010823 -2.66149e-05)
(0.99871 0.00100583 -2.15267e-05)
(0.998808 0.000933681 -1.73894e-05)
(0.998897 0.000865444 -1.40303e-05)
(0.99898 0.000800752 -1.13065e-05)
(0.999056 0.000739287 -9.09971e-06)
(0.999125 0.000680781 -7.31275e-06)
(0.999189 0.000625026 -5.86581e-06)
(0.999247 0.000571887 -4.6936e-06)
(0.9993 0.000521315 -3.74293e-06)
(0.999348 0.00047338 -2.97076e-06)
(0.999392 0.000428308 -2.34275e-06)
(0.999431 0.000386532 -1.83178e-06)
(0.999467 0.000348776 -1.41734e-06)
(0.999499 0.000316143 -1.08632e-06)
(0.999527 0.000290288 -8.85138e-07)
(0.999561 0.000273024 -2.45697e-07)
(1 0.000132871 7.64654e-06)
(1.00002 0.000381009 2.04551e-05)
(1.00007 0.000610373 3.23458e-05)
(1.00013 0.000819538 4.49541e-05)
(1.00021 0.00100653 5.97021e-05)
(1.0003 0.0011684 7.80306e-05)
(1.00039 0.00130085 0.000101502)
(1.00047 0.00139803 0.000131853)