/*--------------------------------*- C++ -*----------------------------------*\
  =========                 |
  \\      /  F ield         | OpenFOAM: The Open Source CFD Toolbox
   \\    /   O peration     | Website:  https://openfoam.org
    \\  /    A nd           | Version:  dev
     \\/     M anipulation  |
\*---------------------------------------------------------------------------*/
FoamFile
{
    format      ascii;
    class       volScalarField;
    location    "70";
    object      h;
}
// * * * * * * * * * * * * * * * * * * * * * * * * * * * * * * * * * * * * * //

dimensions      [0 1 0 0 0 0 0];

internalField   nonuniform List<scalar> 
10000
(
-0.00104114
-0.00260336
-0.00291056
-0.00181374
-3.25842e-05
0.0010518
0.000702446
-0.000539025
-0.00137074
-0.00103391
-0.000263645
-0.000365789
-0.00183993
-0.00399411
-0.0056762
-0.00620379
-0.00541146
-0.00343336
-0.00110867
0.000577041
0.00159588
0.00262944
0.00420718
0.0054451
0.00526296
0.00444033
0.00411941
0.00375351
0.00220359
-0.000373028
-0.00269449
-0.00420609
-0.00604768
-0.00827183
-0.00924838
-0.00874838
-0.00795983
-0.00670796
-0.00417285
-0.000778159
0.00268331
0.00618992
0.00994141
0.0135785
0.0166474
0.0191922
0.021385
0.0230441
0.0240608
0.0245467
0.0245467
0.0240605
0.0230438
0.0213845
0.0191918
0.016647
0.0135781
0.00994114
0.0061898
0.00268335
-0.000777939
-0.00417248
-0.00670746
-0.00795924
-0.00874776
-0.00924779
-0.00827128
-0.00604718
-0.0042057
-0.00269421
-0.000372805
0.0022038
0.00375367
0.00411955
0.00444048
0.00526318
0.00544533
0.00420735
0.00262955
0.00159595
0.000577032
-0.00110882
-0.00343366
-0.00541189
-0.00620429
-0.00567674
-0.00399465
-0.0018404
-0.000366177
-0.000263992
-0.00103424
-0.00137103
-0.00053919
0.000702408
0.00105183
-3.25763e-05
-0.00181378
-0.00291059
-0.00260336
-0.00104113
-0.00260336
-0.0063859
-0.00658554
-0.00280012
0.00274518
0.00614204
0.00526918
0.00167503
-0.000730371
0.000287555
0.00260379
0.00253649
-0.00137908
-0.00723396
-0.0117431
-0.0129527
-0.0105112
-0.00498679
0.00119259
0.00514128
0.00678189
0.00809209
0.0106148
0.0121333
0.00971886
0.00563665
0.00332828
0.00133828
-0.00364066
-0.0112226
-0.0177561
-0.0217599
-0.0265189
-0.0323233
-0.0346639
-0.0328642
-0.0302933
-0.026456
-0.0190343
-0.0091744
0.000908344
0.0112263
0.0223009
0.0331097
0.042374
0.0501844
0.0569385
0.0621003
0.065325
0.0668819
0.0668817
0.0653244
0.0620993
0.0569373
0.0501832
0.0423728
0.0331087
0.0223002
0.0112259
0.000908441
-0.00917385
-0.0190333
-0.0264548
-0.0302919
-0.0328627
-0.0346625
-0.0323219
-0.0265177
-0.021759
-0.0177555
-0.0112221
-0.00364023
0.00133862
0.00332854
0.00563695
0.00971931
0.0121338
0.0106152
0.0080923
0.00678202
0.00514122
0.0011922
-0.00498753
-0.0105123
-0.0129539
-0.0117443
-0.00723514
-0.00138005
0.00253573
0.00260312
0.000286885
-0.000730972
0.00167469
0.00526915
0.00614215
0.00274522
-0.00280022
-0.00658567
-0.00638595
-0.00260335
-0.00291056
-0.00658554
-0.00488942
0.002632
0.0123901
0.0183022
0.0171309
0.0114226
0.00740972
0.00869355
0.0122077
0.0123484
0.00678563
-0.00157675
-0.0078712
-0.00906939
-0.00480883
0.00360443
0.0122209
0.0162618
0.015723
0.0138401
0.0130833
0.0105104
0.00220441
-0.00808154
-0.0148872
-0.0202463
-0.0291881
-0.0409025
-0.0502533
-0.0554223
-0.0613699
-0.0686677
-0.0709942
-0.0674176
-0.0628806
-0.0566515
-0.0452009
-0.0301973
-0.0147327
0.00135768
0.0188153
0.0360339
0.0512223
0.064366
0.0758298
0.0847186
0.0904454
0.0932492
0.0932489
0.0904446
0.0847173
0.0758282
0.0643642
0.0512206
0.0360325
0.0188143
0.00135722
-0.0147326
-0.0301966
-0.0451997
-0.05665
-0.0628788
-0.0674158
-0.0709925
-0.0686662
-0.0613686
-0.0554213
-0.0502526
-0.040902
-0.0291876
-0.020246
-0.014887
-0.00808137
0.00220473
0.0105107
0.0130834
0.0138401
0.0157229
0.0162615
0.0122204
0.00360352
-0.00480994
-0.00907054
-0.00787231
-0.00157769
0.00678503
0.0123481
0.0122075
0.0086932
0.00740931
0.0114225
0.0171311
0.0183024
0.0123902
0.00263189
-0.00488962
-0.00658566
-0.00291058
-0.00181374
-0.00280012
0.002632
0.0147139
0.0287209
0.0368702
0.0352155
0.0272266
0.0209013
0.0210079
0.024126
0.023427
0.0160781
0.00580974
-0.00148722
-0.00181849
0.00504398
0.0166595
0.027601
0.03131
0.0279346
0.0216511
0.0154194
0.00617716
-0.00994383
-0.0279036
-0.0408269
-0.0508253
-0.0638496
-0.07844
-0.0891235
-0.0943736
-0.0999424
-0.106649
-0.107791
-0.102474
-0.096296
-0.0884168
-0.0745816
-0.0567593
-0.0381751
-0.0183656
0.00348192
0.0253163
0.0452866
0.0631309
0.0788635
0.0912559
0.0995114
0.10362
0.103619
0.0995105
0.0912546
0.0788618
0.0631292
0.045285
0.025315
0.00348099
-0.0183661
-0.038175
-0.0567586
-0.0745806
-0.0884155
-0.0962945
-0.102472
-0.10779
-0.106648
-0.0999412
-0.0943727
-0.0891229
-0.0784395
-0.0638491
-0.050825
-0.0408269
-0.0279036
-0.00994386
0.00617706
0.015419
0.0216505
0.0279341
0.0313095
0.0276004
0.0166586
0.00504314
-0.0018192
-0.00148773
0.00580955
0.0160784
0.0234276
0.0241266
0.0210082
0.0209014
0.0272267
0.0352159
0.0368707
0.0287212
0.0147139
0.00263188
-0.00280022
-0.00181377
-3.25842e-05
0.00274518
0.0123901
0.0287209
0.0459781
0.0554161
0.0527466
0.0420367
0.0324042
0.0293786
0.0297027
0.0263159
0.0163732
0.00410944
-0.00395633
-0.00296767
0.0072061
0.0229362
0.0375493
0.0430839
0.0395425
0.0313714
0.0213113
0.00677889
-0.0152445
-0.0390259
-0.0570582
-0.0712035
-0.0873683
-0.103384
-0.114173
-0.119015
-0.123388
-0.128224
-0.12774
-0.121316
-0.114264
-0.105735
-0.0914917
-0.0735325
-0.05459
-0.0337227
-0.0103085
0.0134148
0.0359646
0.0568499
0.0754431
0.0903064
0.100524
0.105706
0.105706
0.100523
0.0903054
0.0754419
0.0568487
0.0359635
0.013414
-0.010309
-0.0337228
-0.0545899
-0.0735321
-0.0914909
-0.105734
-0.114263
-0.121315
-0.127739
-0.128223
-0.123387
-0.119014
-0.114172
-0.103384
-0.0873678
-0.0712032
-0.0570582
-0.0390261
-0.0152449
0.00677842
0.0213106
0.0313706
0.0395418
0.0430833
0.0375488
0.0229357
0.00720569
-0.00296785
-0.00395626
0.00410986
0.016374
0.0263171
0.0297038
0.0293793
0.0324045
0.042037
0.0527471
0.0554167
0.0459787
0.0287212
0.0123902
0.00274521
-3.25634e-05
0.0010518
0.00614204
0.0183022
0.0368702
0.0554161
0.0648934
0.0610294
0.0481693
0.0355295
0.0286382
0.0247514
0.0172735
0.00376694
-0.0111997
-0.0207307
-0.0191523
-0.00609488
0.0139491
0.033241
0.0431005
0.0431976
0.0376924
0.0284335
0.0132247
-0.00955633
-0.0341821
-0.0536838
-0.0697087
-0.08702
-0.102622
-0.112548
-0.117255
-0.120798
-0.123626
-0.121867
-0.115457
-0.108546
-0.100274
-0.0872122
-0.0712787
-0.0542941
-0.0348275
-0.0126838
0.00993043
0.0322549
0.0537043
0.0729186
0.0884301
0.099408
0.105103
0.105103
0.0994079
0.0884298
0.0729184
0.0537041
0.0322548
0.0099304
-0.0126837
-0.0348273
-0.0542939
-0.0712783
-0.0872118
-0.100274
-0.108545
-0.115456
-0.121866
-0.123625
-0.120797
-0.117254
-0.112547
-0.102621
-0.0870193
-0.0697082
-0.0536837
-0.0341823
-0.00955673
0.0132242
0.0284329
0.0376918
0.0431971
0.0431002
0.0332409
0.013949
-0.00609499
-0.0191523
-0.0207305
-0.0111992
0.00376777
0.0172747
0.0247524
0.0286388
0.0355296
0.0481694
0.0610297
0.064894
0.0554167
0.0368706
0.0183024
0.00614214
0.00105184
0.000702446
0.00526918
0.0171309
0.0352155
0.0527466
0.0610294
0.0562538
0.0426771
0.0286151
0.0187744
0.0109045
-0.000661743
-0.0176153
-0.0353987
-0.0470665
-0.0462737
-0.0321385
-0.00956241
0.0130779
0.027524
0.0331006
0.0331511
0.0281617
0.0163063
-0.0021697
-0.0223452
-0.0390492
-0.0538013
-0.0694114
-0.0824524
-0.0904916
-0.0951852
-0.0982887
-0.0992398
-0.0965867
-0.0909369
-0.0845503
-0.0765194
-0.06496
-0.0516595
-0.037434
-0.0205286
-0.00140826
0.0179239
0.0375487
0.0570355
0.074416
0.0884364
0.0986207
0.104058
0.104058
0.0986211
0.0884371
0.0744169
0.0570365
0.0375497
0.0179248
-0.00140744
-0.020528
-0.0374335
-0.0516591
-0.0649597
-0.0765192
-0.0845499
-0.0909363
-0.0965859
-0.0992389
-0.0982877
-0.095184
-0.0904905
-0.0824516
-0.0694109
-0.0538008
-0.0390491
-0.0223454
-0.00216999
0.0163061
0.0281616
0.0331511
0.0331007
0.0275243
0.0130783
-0.0095622
-0.0321384
-0.0462738
-0.0470666
-0.0353986
-0.017615
-0.000661125
0.010905
0.0187746
0.0286148
0.0426767
0.0562537
0.0610297
0.0527471
0.0352158
0.017131
0.00526915
0.000702423
-0.000539025
0.00167503
0.0114226
0.0272266
0.0420367
0.0481693
0.0426771
0.029502
0.0155228
0.00391118
-0.00715028
-0.021927
-0.0412747
-0.0610975
-0.0748591
-0.0760846
-0.0633068
-0.0412661
-0.018404
-0.00151431
0.00828546
0.013301
0.012817
0.00555141
-0.00606624
-0.0184224
-0.0289783
-0.0394346
-0.0503903
-0.0585582
-0.0630718
-0.0668541
-0.0692415
-0.0682514
-0.06479
-0.0600686
-0.0541204
-0.0458676
-0.0354209
-0.0242888
-0.012502
0.00172328
0.0171128
0.0320005
0.0471399
0.0625103
0.0758443
0.0863543
0.0941617
0.0985128
0.0985131
0.0941627
0.086356
0.0758463
0.0625124
0.047142
0.0320024
0.0171143
0.0017244
-0.0125012
-0.0242883
-0.0354205
-0.0458674
-0.05412
-0.0600681
-0.0647894
-0.0682508
-0.0692409
-0.0668534
-0.0630712
-0.058558
-0.0503903
-0.0394345
-0.0289784
-0.0184226
-0.00606636
0.00555158
0.0128174
0.0133015
0.00828605
-0.00151366
-0.0184035
-0.0412658
-0.0633068
-0.0760849
-0.0748596
-0.0610978
-0.0412748
-0.0219268
-0.00715
0.00391116
0.0155224
0.0295014
0.0426767
0.0481694
0.042037
0.0272266
0.0114224
0.00167469
-0.000539172
-0.00137074
-0.000730371
0.00740972
0.0209013
0.0324042
0.0355295
0.0286151
0.0155228
0.00153838
-0.0120348
-0.026491
-0.0444272
-0.0657471
-0.0867585
-0.101717
-0.104612
-0.0936488
-0.0734466
-0.0523989
-0.0352988
-0.0235392
-0.0158299
-0.0136934
-0.0178737
-0.0234013
-0.0279125
-0.0318688
-0.037126
-0.0420065
-0.0437939
-0.0434991
-0.0452662
-0.0463852
-0.0432292
-0.0388716
-0.0350542
-0.0295574
-0.0210163
-0.0115076
-0.00210743
0.00768719
0.0192702
0.0307002
0.0406797
0.0503227
0.0600823
0.0678532
0.0734429
0.0776931
0.0802823
0.0802827
0.0776945
0.0734451
0.0678558
0.0600852
0.0503255
0.0406822
0.0307023
0.0192718
0.00768841
-0.00210656
-0.011507
-0.0210159
-0.0295572
-0.035054
-0.0388715
-0.0432292
-0.0463853
-0.0452664
-0.0434994
-0.0437944
-0.0420071
-0.0371263
-0.0318689
-0.0279126
-0.0234012
-0.0178732
-0.0136926
-0.0158291
-0.0235384
-0.0352982
-0.0523985
-0.0734466
-0.0936493
-0.104612
-0.101718
-0.0867591
-0.0657473
-0.044427
-0.0264906
-0.0120346
0.0015382
0.0155224
0.0286149
0.0355296
0.0324045
0.0209014
0.0074093
-0.000730962
-0.00137101
-0.00103391
0.000287555
0.00869355
0.0210079
0.0293786
0.0286382
0.0187744
0.00391118
-0.0120348
-0.0292941
-0.0485044
-0.0702366
-0.0931209
-0.113789
-0.127747
-0.130095
-0.119287
-0.100091
-0.080448
-0.0632463
-0.0503041
-0.0417629
-0.0396922
-0.0437873
-0.0464062
-0.0459957
-0.045739
-0.0470802
-0.0464629
-0.0420982
-0.0367405
-0.0353248
-0.0339578
-0.0280201
-0.0223182
-0.0189629
-0.0137648
-0.00530603
0.00282675
0.0102097
0.0177673
0.0261239
0.0330911
0.0378294
0.0414751
0.04483
0.0463994
0.0465765
0.0467978
0.0472844
0.0472849
0.0467991
0.0465787
0.0464021
0.044833
0.0414782
0.0378323
0.0330937
0.0261262
0.0177691
0.010211
0.00282762
-0.00530556
-0.0137647
-0.0189632
-0.0223187
-0.028021
-0.0339589
-0.0353259
-0.0367416
-0.0420993
-0.0464637
-0.0470806
-0.0457391
-0.0459955
-0.0464059
-0.0437867
-0.0396912
-0.0417622
-0.0503036
-0.063246
-0.080448
-0.100091
-0.119287
-0.130096
-0.127748
-0.113789
-0.0931211
-0.0702362
-0.0485038
-0.0292935
-0.0120346
0.00391117
0.0187746
0.0286388
0.0293793
0.0210082
0.0086932
0.000286894
-0.00103423
-0.000263645
0.00260379
0.0122077
0.024126
0.0297027
0.0247514
0.0109045
-0.00715028
-0.026491
-0.0485044
-0.0733298
-0.0993993
-0.123927
-0.143562
-0.154813
-0.154215
-0.14091
-0.120074
-0.0989409
-0.0792626
-0.0635922
-0.0538194
-0.052463
-0.0578259
-0.0604154
-0.0588995
-0.0582427
-0.058842
-0.0556703
-0.0476812
-0.0388102
-0.0343129
-0.0300273
-0.021293
-0.0139453
-0.0104308
-0.00534715
0.00229685
0.00811302
0.012513
0.0168146
0.0206552
0.0221843
0.0212622
0.0188056
0.0157058
0.0113906
0.00670288
0.00328237
0.00177373
0.00177409
0.00328346
0.00670463
0.0113929
0.0157085
0.0188085
0.0212652
0.0221872
0.0206578
0.0168168
0.0125146
0.00811401
0.00229722
-0.00534744
-0.0104317
-0.0139466
-0.0212946
-0.030029
-0.0343145
-0.0388116
-0.0476823
-0.055671
-0.0588422
-0.0582425
-0.0588991
-0.0604149
-0.0578253
-0.0524623
-0.053819
-0.063592
-0.0792627
-0.0989413
-0.120075
-0.140911
-0.154216
-0.154814
-0.143562
-0.123927
-0.0993988
-0.0733291
-0.0485038
-0.0264906
-0.00714999
0.010905
0.0247524
0.0297038
0.0241266
0.0122075
0.00260312
-0.000263985
-0.000365789
0.00253649
0.0123484
0.023427
0.0263159
0.0172735
-0.000661743
-0.021927
-0.0444272
-0.0702366
-0.0993993
-0.128783
-0.154291
-0.172349
-0.17998
-0.175183
-0.157938
-0.133816
-0.109103
-0.0849615
-0.0645792
-0.0518047
-0.0498961
-0.0558021
-0.0594005
-0.0591306
-0.0608474
-0.0634981
-0.0607546
-0.0520409
-0.0420382
-0.0354667
-0.0282753
-0.0168103
-0.00732561
-0.00258955
0.00312283
0.00982835
0.0129529
0.0137022
0.0138473
0.0120066
0.00722882
0.000387241
-0.00785142
-0.0167947
-0.0259413
-0.0342041
-0.0402403
-0.0432729
-0.0432727
-0.0402397
-0.034203
-0.0259397
-0.0167926
-0.00784893
0.000389996
0.00723164
0.0120093
0.0138496
0.0137039
0.0129539
0.00982858
0.00312228
-0.00259076
-0.00732719
-0.016812
-0.0282771
-0.0354682
-0.0420393
-0.0520416
-0.060755
-0.0634981
-0.0608471
-0.0591302
-0.0594003
-0.0558019
-0.0498958
-0.0518046
-0.0645794
-0.0849617
-0.109103
-0.133816
-0.157938
-0.175184
-0.17998
-0.17235
-0.154291
-0.128783
-0.0993988
-0.0702362
-0.044427
-0.0219268
-0.000661135
0.0172746
0.0263171
0.0234276
0.0123481
0.00253573
-0.000366176
-0.00183993
-0.00137908
0.00678563
0.0160781
0.0163732
0.00376694
-0.0176153
-0.0412747
-0.0657471
-0.0931209
-0.123927
-0.154291
-0.179089
-0.194814
-0.198575
-0.189774
-0.169371
-0.142786
-0.114676
-0.0856619
-0.0595005
-0.0422721
-0.0380081
-0.0421546
-0.0454933
-0.0463081
-0.0505408
-0.0556821
-0.0546668
-0.0475334
-0.038886
-0.0316787
-0.0222183
-0.00900951
0.00218177
0.00861848
0.0155187
0.0214254
0.0219813
0.0190058
0.0147512
0.00691707
-0.00431926
-0.0168176
-0.0300777
-0.0437865
-0.0564229
-0.0668146
-0.0743105
-0.0782728
-0.0782727
-0.0743103
-0.0668141
-0.056422
-0.0437852
-0.030076
-0.0168155
-0.00431696
0.00691938
0.0147533
0.0190073
0.0219822
0.0214257
0.0155183
0.00861756
0.00218065
-0.00901064
-0.0222194
-0.0316796
-0.0388866
-0.0475337
-0.0546669
-0.0556822
-0.0505408
-0.0463081
-0.0454935
-0.0421548
-0.0380081
-0.0422722
-0.0595007
-0.085662
-0.114676
-0.142786
-0.169371
-0.189775
-0.198575
-0.194814
-0.179089
-0.154291
-0.123927
-0.0931211
-0.0657473
-0.0412748
-0.017615
0.00376776
0.016374
0.0160784
0.00678504
-0.00138005
-0.0018404
-0.00399411
-0.00723396
-0.00157675
0.00580974
0.00410944
-0.0111997
-0.0353987
-0.0610975
-0.0867585
-0.113789
-0.143562
-0.172349
-0.194814
-0.207896
-0.20815
-0.196096
-0.173682
-0.145723
-0.115399
-0.0828753
-0.0521404
-0.0309103
-0.0233395
-0.0236316
-0.0249288
-0.0256381
-0.0310785
-0.0378164
-0.038486
-0.0339993
-0.0283927
-0.0222363
-0.0123273
0.000379419
0.0115695
0.0189203
0.0264137
0.0312507
0.0295378
0.0234697
0.0155781
0.00287798
-0.0135545
-0.0303273
-0.0471002
-0.0639755
-0.0786564
-0.0899558
-0.0980059
-0.102385
-0.102385
-0.0980059
-0.0899557
-0.0786562
-0.063975
-0.0470994
-0.0303262
-0.0135532
0.00287935
0.0155795
0.0234708
0.0295387
0.0312513
0.026414
0.0189203
0.0115694
0.00037936
-0.0123274
-0.0222364
-0.0283928
-0.0339993
-0.0384862
-0.0378168
-0.0310789
-0.0256385
-0.0249293
-0.023632
-0.0233397
-0.0309103
-0.0521403
-0.0828752
-0.115399
-0.145723
-0.173682
-0.196096
-0.208151
-0.207897
-0.194814
-0.17235
-0.143562
-0.113789
-0.0867591
-0.0610978
-0.0353986
-0.0111992
0.00410986
0.00580956
-0.00157768
-0.00723514
-0.00399465
-0.0056762
-0.0117431
-0.0078712
-0.00148722
-0.00395633
-0.0207307
-0.0470665
-0.0748591
-0.101717
-0.127747
-0.154813
-0.17998
-0.198575
-0.20815
-0.204784
-0.190096
-0.16712
-0.139765
-0.109924
-0.0769541
-0.0447176
-0.0220121
-0.0123264
-0.00916297
-0.00822416
-0.00815601
-0.0131449
-0.0194528
-0.0199942
-0.0171854
-0.014618
-0.0100686
-0.0010099
0.00934187
0.018431
0.0249215
0.0313233
0.0342573
0.0303888
0.0220909
0.0119206
-0.00344143
-0.0225382
-0.0411779
-0.059289
-0.0773468
-0.0926189
-0.103962
-0.112037
-0.116491
-0.116491
-0.112037
-0.103963
-0.0926192
-0.0773472
-0.0592894
-0.0411782
-0.0225383
-0.00344126
0.0119211
0.0220916
0.0303899
0.0342586
0.0313247
0.0249228
0.0184322
0.00934293
-0.00100918
-0.0100683
-0.0146179
-0.0171856
-0.0199947
-0.0194537
-0.0131457
-0.00815668
-0.00822469
-0.00916333
-0.0123265
-0.0220119
-0.0447173
-0.0769538
-0.109924
-0.139765
-0.167121
-0.190096
-0.204785
-0.208151
-0.198575
-0.17998
-0.154814
-0.127748
-0.101718
-0.0748596
-0.0470666
-0.0207305
-0.00395625
-0.00148771
-0.0078723
-0.0117443
-0.00567675
-0.00620379
-0.0129527
-0.00906939
-0.00181849
-0.00296767
-0.0191523
-0.0462737
-0.0760846
-0.104612
-0.130095
-0.154215
-0.175183
-0.189774
-0.196096
-0.190096
-0.173826
-0.151249
-0.125506
-0.0974431
-0.0659253
-0.0348686
-0.0137433
-0.00434231
0.000193548
0.00205134
0.00197881
-0.00258037
-0.0074213
-0.00658772
-0.00440085
-0.00413793
-0.000768129
0.00682902
0.01357
0.0186681
0.0223908
0.0257818
0.0256803
0.019567
0.00990685
-0.000932545
-0.0162887
-0.0347811
-0.0522086
-0.0689149
-0.0857158
-0.0997953
-0.110206
-0.117738
-0.121918
-0.121918
-0.117739
-0.110207
-0.0997964
-0.0857172
-0.0689165
-0.0522102
-0.0347825
-0.0162896
-0.000932821
0.00990729
0.0195682
0.025682
0.0257839
0.022393
0.0186702
0.0135717
0.00683013
-0.000767777
-0.00413806
-0.00440128
-0.00658862
-0.00742247
-0.00258131
0.00197817
0.00205089
0.000193316
-0.00434235
-0.013743
-0.0348682
-0.0659251
-0.0974431
-0.125506
-0.151249
-0.173826
-0.190096
-0.196096
-0.189775
-0.175184
-0.154216
-0.130096
-0.104612
-0.0760849
-0.0462738
-0.0191523
-0.00296784
-0.00181918
-0.00907053
-0.0129539
-0.0062043
-0.00541146
-0.0105112
-0.00480883
0.00504398
0.0072061
-0.00609488
-0.0321385
-0.0633068
-0.0936488
-0.119287
-0.14091
-0.157938
-0.169371
-0.173682
-0.16712
-0.151249
-0.130334
-0.106937
-0.0809424
-0.0517793
-0.0235363
-0.00552598
0.00260824
0.0073727
0.00918999
0.00814462
0.0037225
0.000959644
0.00386541
0.00678289
0.00654118
0.00994808
0.0161648
0.0190951
0.0195248
0.0192851
0.0180894
0.0136339
0.00481914
-0.00596734
-0.0167538
-0.0305849
-0.0462277
-0.0602485
-0.0734563
-0.0869616
-0.0981368
-0.106461
-0.112661
-0.116122
-0.116122
-0.112662
-0.106462
-0.0981387
-0.0869639
-0.0734587
-0.0602509
-0.0462298
-0.0305864
-0.0167545
-0.00596711
0.00482031
0.0136358
0.0180918
0.0192877
0.0195272
0.019097
0.0161661
0.00994852
0.006541
0.00678239
0.00386448
0.000958481
0.00372163
0.00814408
0.00918958
0.0073724
0.00260803
-0.0055259
-0.023536
-0.0517793
-0.0809427
-0.106937
-0.130334
-0.151249
-0.167121
-0.173682
-0.169371
-0.157938
-0.140911
-0.119287
-0.0936493
-0.0633068
-0.0321385
-0.00609498
0.00720571
0.00504316
-0.00480993
-0.0105123
-0.0054119
-0.00343336
-0.00498679
0.00360443
0.0166595
0.0229362
0.0139491
-0.00956241
-0.0412661
-0.0734466
-0.100091
-0.120074
-0.133816
-0.142786
-0.145723
-0.139765
-0.125506
-0.106937
-0.0861744
-0.0617261
-0.0342054
-0.00796618
0.00822346
0.0160668
0.021335
0.0230456
0.0205739
0.0157056
0.0146441
0.0189561
0.0223974
0.0219308
0.0251738
0.0297022
0.0288277
0.0243139
0.019308
0.0125873
0.00285787
-0.00911484
-0.0212722
-0.0322545
-0.0444697
-0.0566623
-0.0665796
-0.0753992
-0.0844105
-0.0913503
-0.0962929
-0.100106
-0.102313
-0.102314
-0.100108
-0.0962949
-0.0913529
-0.0844133
-0.075402
-0.0665822
-0.0566645
-0.0444713
-0.0322553
-0.0212722
-0.00911398
0.00285947
0.0125894
0.0193104
0.0243162
0.0288296
0.0297036
0.0251746
0.0219311
0.0223973
0.0189556
0.0146433
0.015705
0.0205734
0.023045
0.0213345
0.0160663
0.00822316
-0.00796634
-0.0342058
-0.0617267
-0.0861749
-0.106937
-0.125506
-0.139765
-0.145723
-0.142786
-0.133816
-0.120075
-0.100091
-0.0734466
-0.0412658
-0.00956221
0.013949
0.0229357
0.0166587
0.00360353
-0.00498754
-0.00343367
-0.00110867
0.00119259
0.0122209
0.027601
0.0375493
0.033241
0.0130779
-0.018404
-0.0523989
-0.080448
-0.0989409
-0.109103
-0.114676
-0.115399
-0.109924
-0.0974431
-0.0809424
-0.0617261
-0.0369305
-0.009196
0.0164409
0.0323048
0.0408285
0.0473514
0.0494663
0.0452858
0.0389826
0.0377284
0.0407891
0.0423195
0.0400015
0.0413338
0.0428999
0.0375874
0.0279237
0.018274
0.00640101
-0.0083565
-0.0232336
-0.0365678
-0.047959
-0.0588936
-0.0679915
-0.0740746
-0.0785193
-0.0826698
-0.0847443
-0.0853289
-0.0858737
-0.0864403
-0.0864408
-0.0858752
-0.0853311
-0.084747
-0.0826726
-0.078522
-0.074077
-0.0679935
-0.0588951
-0.0479599
-0.0365683
-0.0232334
-0.00835571
0.00640226
0.0182756
0.0279256
0.0375892
0.0429015
0.0413352
0.0400025
0.0423202
0.0407895
0.0377284
0.0389823
0.0452855
0.0494657
0.0473506
0.0408279
0.0323044
0.0164407
-0.00919642
-0.0369311
-0.0617267
-0.0809427
-0.0974431
-0.109924
-0.115399
-0.114676
-0.109103
-0.0989413
-0.080448
-0.0523985
-0.0184035
0.0130782
0.0332409
0.0375488
0.0276004
0.0122204
0.00119219
-0.00110883
0.000577041
0.00514128
0.0162618
0.03131
0.0430839
0.0431005
0.027524
-0.00151431
-0.0352988
-0.0632463
-0.0792626
-0.0849615
-0.0856619
-0.0828753
-0.0769541
-0.0659253
-0.0517793
-0.0342054
-0.009196
0.0186136
0.0436839
0.0599378
0.0701788
0.0790695
0.0824439
0.0769912
0.0695138
0.0671241
0.0670511
0.0647389
0.058996
0.0565447
0.0537241
0.043618
0.0294246
0.0164215
0.000897818
-0.017448
-0.034033
-0.0476627
-0.0591731
-0.0689149
-0.0754162
-0.0782539
-0.0788322
-0.0785911
-0.0763066
-0.0727304
-0.0700881
-0.0691797
-0.06918
-0.0700891
-0.0727321
-0.0763087
-0.0785933
-0.0788344
-0.0782561
-0.075418
-0.0689164
-0.0591744
-0.0476637
-0.0340336
-0.0174482
0.000898046
0.0164222
0.0294258
0.0436196
0.053726
0.0565468
0.0589978
0.0647405
0.0670523
0.0671247
0.0695139
0.076991
0.0824434
0.0790688
0.0701781
0.0599374
0.0436836
0.0186133
-0.00919643
-0.0342058
-0.0517793
-0.0659251
-0.0769538
-0.0828752
-0.085662
-0.0849617
-0.0792627
-0.063246
-0.0352982
-0.00151367
0.0275243
0.0431002
0.0430833
0.0313095
0.0162615
0.00514121
0.000577017
0.00159588
0.00678189
0.015723
0.0279346
0.0395425
0.0431976
0.0331006
0.00828546
-0.0235392
-0.0503041
-0.0635922
-0.0645792
-0.0595005
-0.0521404
-0.0447176
-0.0348686
-0.0235363
-0.00796618
0.0164409
0.0436839
0.0679398
0.0844401
0.0962565
0.10728
0.112025
0.106142
0.098457
0.0949027
0.0912996
0.0846815
0.0748971
0.0679271
0.0606698
0.0468825
0.0301219
0.0162151
-9.03177e-05
-0.0189391
-0.0346542
-0.0466931
-0.0569421
-0.0644693
-0.0679644
-0.0675893
-0.0646205
-0.0607471
-0.0554528
-0.0492148
-0.0446311
-0.0429849
-0.0429849
-0.0446313
-0.0492154
-0.0554536
-0.0607482
-0.064622
-0.067591
-0.0679661
-0.064471
-0.0569437
-0.0466946
-0.0346555
-0.0189402
-9.10424e-05
0.0162149
0.0301224
0.0468837
0.0606716
0.0679293
0.0748994
0.0846835
0.0913012
0.0949037
0.0984574
0.106141
0.112025
0.107279
0.0962561
0.08444
0.0679396
0.0436836
0.0164407
-0.00796634
-0.023536
-0.0348682
-0.0447173
-0.0521403
-0.0595007
-0.0645794
-0.0635921
-0.0503036
-0.0235384
0.00828605
0.0331007
0.0431972
0.0395418
0.0279341
0.0157229
0.00678201
0.00159593
0.00262944
0.00809209
0.0138401
0.0216511
0.0313714
0.0376924
0.0331511
0.013301
-0.0158299
-0.0417629
-0.0538194
-0.0518047
-0.0422721
-0.0309103
-0.0220121
-0.0137433
-0.00552598
0.00822346
0.0323048
0.0599378
0.0844401
0.101993
0.116359
0.130375
0.137662
0.133405
0.127385
0.123756
0.117504
0.107126
0.0937473
0.0826333
0.071246
0.054369
0.0361588
0.0227043
0.00747077
-0.00973993
-0.0229769
-0.0324383
-0.0406158
-0.0453106
-0.0457859
-0.0428192
-0.0373643
-0.0313045
-0.0251103
-0.0187138
-0.0142093
-0.0127846
-0.0127844
-0.0142088
-0.0187132
-0.0251098
-0.0313045
-0.037365
-0.0428203
-0.0457873
-0.0453124
-0.0406177
-0.0324401
-0.0229787
-0.00974165
0.00746948
0.0227035
0.0361588
0.0543699
0.0712476
0.0826353
0.0937496
0.107128
0.117506
0.123757
0.127386
0.133405
0.137662
0.130375
0.116358
0.101993
0.08444
0.0599374
0.0323044
0.00822316
-0.0055259
-0.013743
-0.0220119
-0.0309103
-0.0422722
-0.0518046
-0.053819
-0.0417622
-0.0158291
0.0133015
0.0331511
0.0376918
0.0313706
0.0216505
0.0138401
0.00809229
0.00262954
0.00420718
0.0106148
0.0130833
0.0154194
0.0213113
0.0284335
0.0281617
0.012817
-0.0136934
-0.0396922
-0.052463
-0.0498961
-0.0380081
-0.0233395
-0.0123264
-0.00434231
0.00260824
0.0160668
0.0408285
0.0701788
0.0962565
0.116359
0.134649
0.151933
0.161584
0.15903
0.154466
0.150559
0.141933
0.12814
0.111846
0.0971571
0.0817585
0.0622173
0.0432786
0.0306014
0.0169192
0.00240366
-0.00735522
-0.0135003
-0.0190108
-0.0205411
-0.0183032
-0.0139115
-0.00768632
-0.00111359
0.00417951
0.0087091
0.0117087
0.0125051
0.0125054
0.0117095
0.00871031
0.00418072
-0.0011128
-0.00768604
-0.0139118
-0.0183042
-0.0205428
-0.0190128
-0.0135024
-0.00735739
0.00240163
0.0169177
0.0306005
0.0432781
0.0622176
0.0817596
0.0971587
0.111848
0.128143
0.141935
0.150561
0.154468
0.159031
0.161584
0.151933
0.134649
0.116358
0.0962561
0.0701782
0.0408279
0.0160663
0.00260802
-0.00434235
-0.0123265
-0.0233397
-0.0380081
-0.0498958
-0.0524623
-0.0396912
-0.0136926
0.0128174
0.0281616
0.0284329
0.0213106
0.015419
0.0130834
0.0106152
0.00420734
0.0054451
0.0121333
0.0105104
0.00617716
0.00677889
0.0132247
0.0163063
0.00555141
-0.0178737
-0.0437873
-0.0578259
-0.0558021
-0.0421546
-0.0236316
-0.00916297
0.000193548
0.0073727
0.021335
0.0473514
0.0790695
0.10728
0.130375
0.151933
0.170246
0.179772
0.176867
0.171618
0.165604
0.153306
0.135571
0.116932
0.099672
0.0812996
0.0605729
0.0420659
0.0302933
0.0183498
0.00738928
0.002228
0.000446001
-0.00151809
0.000544775
0.00528329
0.00986099
0.0150223
0.0207124
0.0243854
0.0266013
0.0281599
0.0287922
0.0287923
0.0281603
0.0266023
0.0243867
0.0207136
0.0150235
0.00986169
0.00528307
0.000543551
-0.00151993
0.00044387
0.00222568
0.00738708
0.0183482
0.0302921
0.042065
0.0605724
0.0812999
0.0996727
0.116933
0.135573
0.153308
0.165607
0.17162
0.176869
0.179774
0.170247
0.151933
0.130375
0.107279
0.0790688
0.0473506
0.0213345
0.0073724
0.000193328
-0.00916332
-0.023632
-0.0421548
-0.0558019
-0.0578253
-0.0437867
-0.0178732
0.00555158
0.0163061
0.0132242
0.00677841
0.00617705
0.0105107
0.0121338
0.00544532
0.00526296
0.00971886
0.00220441
-0.00994383
-0.0152445
-0.00955633
-0.0021697
-0.00606624
-0.0234013
-0.0464062
-0.0604154
-0.0594005
-0.0454933
-0.0249288
-0.00822416
0.00205134
0.00918999
0.0230456
0.0494663
0.0824439
0.112025
0.137662
0.161584
0.179772
0.187894
0.183188
0.1755
0.165979
0.148981
0.127171
0.10714
0.0888567
0.0694176
0.0495438
0.0330069
0.02279
0.0131435
0.00615742
0.00601767
0.00905667
0.011028
0.0165226
0.0232608
0.0269964
0.0297337
0.0336052
0.035759
0.036435
0.0375196
0.0386836
0.0386836
0.0375196
0.0364354
0.0357599
0.0336065
0.0297352
0.0269977
0.0232612
0.0165221
0.0110268
0.00905486
0.0060155
0.00615524
0.0131416
0.0227884
0.0330054
0.0495425
0.0694169
0.0888566
0.10714
0.127172
0.148984
0.165982
0.175502
0.18319
0.187896
0.179774
0.161584
0.137662
0.112025
0.0824434
0.0494657
0.023045
0.00918957
0.0020509
-0.00822468
-0.0249293
-0.0454935
-0.0594003
-0.0604149
-0.0464059
-0.0234012
-0.00606634
-0.00216998
-0.00955674
-0.0152449
-0.00994387
0.00220473
0.00971932
0.00526317
0.00444033
0.00563665
-0.00808154
-0.0279036
-0.0390259
-0.0341821
-0.0223452
-0.0184224
-0.0279125
-0.0459957
-0.0588995
-0.0591306
-0.0463081
-0.0256381
-0.00815601
0.00197881
0.00814462
0.0205739
0.0452858
0.0769912
0.106142
0.133405
0.15903
0.176867
0.183188
0.176543
0.166725
0.154403
0.133862
0.109665
0.090262
0.0729665
0.0548188
0.0382001
0.0260028
0.0192336
0.0131453
0.0102913
0.014695
0.0218682
0.0267722
0.0341981
0.0417626
0.0442755
0.0444227
0.0462422
0.0471476
0.0470794
0.0481432
0.0497455
0.0497455
0.0481433
0.0470795
0.0471481
0.0462432
0.0444239
0.0442766
0.0417635
0.0341986
0.0267721
0.0218673
0.0146935
0.0102895
0.0131434
0.0192316
0.0260008
0.0381984
0.0548175
0.0729658
0.0902619
0.109665
0.133864
0.154405
0.166727
0.176546
0.18319
0.176869
0.159031
0.133405
0.106141
0.076991
0.0452855
0.0205734
0.00814407
0.00197818
-0.00815667
-0.0256385
-0.0463081
-0.0591302
-0.0588991
-0.0459955
-0.0279126
-0.0184226
-0.0223454
-0.0341823
-0.0390261
-0.0279036
-0.00808136
0.00563696
0.00444048
0.00411941
0.00332828
-0.0148872
-0.0408269
-0.0570582
-0.0536838
-0.0390492
-0.0289783
-0.0318688
-0.045739
-0.0582427
-0.0608474
-0.0505408
-0.0310785
-0.0131449
-0.00258037
0.0037225
0.0157056
0.0389826
0.0695138
0.098457
0.127385
0.154466
0.171618
0.1755
0.166725
0.155221
0.140646
0.117326
0.0912467
0.0723747
0.0558011
0.0389824
0.0256844
0.0180977
0.0152786
0.0130343
0.0136731
0.0208847
0.0298845
0.03512
0.0417875
0.0485647
0.0503024
0.0492127
0.049768
0.0497851
0.0491797
0.0495936
0.0505529
0.0505532
0.0495942
0.0491801
0.0497854
0.0497684
0.0492131
0.0503028
0.0485656
0.0417888
0.035121
0.0298848
0.0208842
0.0136718
0.0130323
0.0152763
0.0180954
0.0256824
0.0389808
0.0558
0.0723741
0.0912467
0.117327
0.140647
0.155222
0.166727
0.175502
0.17162
0.154468
0.127386
0.0984574
0.0695139
0.0389823
0.015705
0.00372163
-0.0025813
-0.0131457
-0.0310789
-0.0505408
-0.0608471
-0.0582425
-0.0457391
-0.0318689
-0.0289784
-0.0390491
-0.0536837
-0.0570582
-0.0408269
-0.014887
0.00332855
0.00411954
0.00375351
0.00133828
-0.0202463
-0.0508253
-0.0712035
-0.0697087
-0.0538013
-0.0394346
-0.037126
-0.0470802
-0.058842
-0.0634981
-0.0556821
-0.0378164
-0.0194528
-0.0074213
0.000959644
0.0146441
0.0377284
0.0671241
0.0949027
0.123756
0.150559
0.165604
0.165979
0.154403
0.140646
0.123486
0.0979468
0.0707326
0.0523981
0.036383
0.0205829
0.009928
0.00617353
0.00705805
0.00868894
0.0122397
0.0203832
0.028813
0.0321876
0.0360378
0.0408442
0.0425742
0.0421525
0.0427815
0.0423821
0.0410798
0.0399427
0.0391958
0.0391962
0.0399435
0.0410803
0.0423823
0.0427815
0.0421522
0.042574
0.0408449
0.0360392
0.0321891
0.0288141
0.0203836
0.0122391
0.00868733
0.00705582
0.00617126
0.00992593
0.020581
0.0363814
0.052397
0.0707318
0.0979467
0.123486
0.140647
0.154405
0.165982
0.165607
0.150561
0.123757
0.0949037
0.0671247
0.0377284
0.0146433
0.000958481
-0.00742246
-0.0194536
-0.0378168
-0.0556822
-0.0634981
-0.0588422
-0.0470806