/*--------------------------------*- C++ -*----------------------------------*\
  =========                 |
  \\      /  F ield         | OpenFOAM: The Open Source CFD Toolbox
   \\    /   O peration     | Website:  https://openfoam.org
    \\  /    A nd           | Version:  dev
     \\/     M anipulation  |
\*---------------------------------------------------------------------------*/
FoamFile
{
    format      ascii;
    class       volScalarField;
    location    "70";
    object      h_0;
}
// * * * * * * * * * * * * * * * * * * * * * * * * * * * * * * * * * * * * * //

dimensions      [0 1 0 0 0 0 0];

internalField   nonuniform List<scalar> 
10000
(
-0.000974709
-0.00243208
-0.00269625
-0.00160504
0.000164602
0.00126141
0.000941093
-0.000287956
-0.00114766
-0.000871577
-0.000171305
-0.000334279
-0.00185743
-0.00405166
-0.00576468
-0.00631666
-0.00554323
-0.0035791
-0.00125967
0.000430005
0.00144896
0.00247386
0.00404954
0.00530021
0.00513299
0.00431122
0.00397943
0.00361858
0.00208937
-0.000478843
-0.00280013
-0.00429363
-0.00610089
-0.00829454
-0.00924768
-0.0087181
-0.00788906
-0.00660656
-0.0040574
-0.000646957
0.00283159
0.00633749
0.0100778
0.0137082
0.016767
0.0192927
0.0214688
0.0231183
0.024126
0.0246042
0.0246041
0.0241258
0.023118
0.0214684
0.0192922
0.0167666
0.0137078
0.0100776
0.00633736
0.00283164
-0.00064674
-0.00405703
-0.00660607
-0.00788847
-0.00871747
-0.00924708
-0.00829399
-0.00610039
-0.00429323
-0.00279985
-0.000478618
0.00208958
0.00361875
0.00397956
0.00431137
0.0051332
0.00530043
0.00404971
0.00247397
0.00144903
0.000429993
-0.00125982
-0.0035794
-0.00554366
-0.00631716
-0.00576522
-0.0040522
-0.00185789
-0.000334667
-0.000171651
-0.00087191
-0.00114794
-0.000288114
0.000941062
0.00126144
0.000164616
-0.00160507
-0.00269627
-0.00243207
-0.000974691
-0.00243208
-0.00595309
-0.0060659
-0.00232757
0.00316268
0.00658767
0.0058034
0.00226125
-0.000198539
0.000675155
0.00282323
0.00261676
-0.00140511
-0.00734454
-0.011916
-0.0131772
-0.0107801
-0.00529087
0.000873557
0.00482949
0.00646134
0.007735
0.010242
0.0117899
0.00941068
0.00532361
0.00298089
0.00100047
-0.00392775
-0.0114948
-0.0180367
-0.021999
-0.026674
-0.0324068
-0.0346953
-0.0328238
-0.0301508
-0.0262374
-0.0187835
-0.00888498
0.0012416
0.0115551
0.0225972
0.0333861
0.0426214
0.0503776
0.0570847
0.0622188
0.0654181
0.0669531
0.0669529
0.0654175
0.0622179
0.0570835
0.0503763
0.0426202
0.033385
0.0225965
0.0115548
0.00124169
-0.00888444
-0.0187826
-0.0262361
-0.0301494
-0.0328223
-0.0346938
-0.0324055
-0.0266728
-0.0219981
-0.0180361
-0.0114943
-0.00392731
0.0010008
0.00298114
0.00532391
0.00941112
0.0117904
0.0102423
0.00773519
0.00646146
0.00482943
0.000873168
-0.00529161
-0.0107811
-0.0131783
-0.0119173
-0.00734572
-0.00140609
0.002616
0.00282256
0.000674492
-0.000199128
0.00226093
0.00580339
0.00658779
0.00316273
-0.00232765
-0.00606601
-0.00595313
-0.00243206
-0.00269625
-0.0060659
-0.00432829
0.00304102
0.0126587
0.0185887
0.0175616
0.0119719
0.00793569
0.00907445
0.012416
0.0124329
0.00679807
-0.00161049
-0.0079304
-0.00915666
-0.00493395
0.00343724
0.0120258
0.0160562
0.0154741
0.0135037
0.0126917
0.0101384
0.00186318
-0.00844593
-0.0153127
-0.0206672
-0.0295439
-0.041247
-0.0506252
-0.0557523
-0.0615988
-0.068819
-0.071095
-0.0674385
-0.0627769
-0.0564579
-0.0449743
-0.0299258
-0.0144053
0.0016754
0.0190851
0.0362741
0.0514207
0.0644863
0.0758823
0.0847303
0.0904197
0.0931918
0.0931915
0.0904189
0.084729
0.0758806
0.0644846
0.051419
0.0362727
0.0190841
0.00167492
-0.0144052
-0.0299252
-0.0449732
-0.0564564
-0.0627752
-0.0674367
-0.0710933
-0.0688174
-0.0615975
-0.0557513
-0.0506246
-0.0412465
-0.0295434
-0.0206669
-0.0153125
-0.00844576
0.00186349
0.0101387
0.0126918
0.0135036
0.015474
0.0160559
0.0120252
0.00343633
-0.00493507
-0.00915782
-0.00793152
-0.00161144
0.00679747
0.0124326
0.0124158
0.0090741
0.00793529
0.0119718
0.0175617
0.0185889
0.0126588
0.00304091
-0.00432847
-0.00606601
-0.00269626
-0.00160504
-0.00232757
0.00304102
0.014829
0.0285838
0.0367158
0.0352451
0.0274492
0.0211672
0.0211861
0.0241921
0.0234474
0.0161239
0.00590781
-0.001326
-0.00162173
0.00523493
0.0168131
0.0277116
0.0313766
0.0279076
0.0214753
0.0151347
0.00588491
-0.0102257
-0.0282282
-0.0412272
-0.0512206
-0.0641689
-0.0787484
-0.0894721
-0.0946888
-0.100161
-0.10681
-0.107924
-0.102546
-0.0962594
-0.088307
-0.0744526
-0.0565943
-0.0379576
-0.0181619
0.00363345
0.0254367
0.0453629
0.0631237
0.0787833
0.0911314
0.0993458
0.10342
0.103419
0.0993449
0.0911301
0.0787816
0.063122
0.0453613
0.0254353
0.0036325
-0.0181624
-0.0379575
-0.0565937
-0.0744515
-0.0883058
-0.0962579
-0.102545
-0.107922
-0.106808
-0.100159
-0.0946879
-0.0894715
-0.0787479
-0.0641685
-0.0512203
-0.0412272
-0.0282283
-0.0102258
0.00588482
0.0151344
0.0214747
0.0279071
0.0313761
0.0277109
0.0168123
0.00523409
-0.00162244
-0.00132651
0.00590762
0.0161242
0.023448
0.0241927
0.0211864
0.0211673
0.0274493
0.0352454
0.0367163
0.0285841
0.014829
0.0030409
-0.00232765
-0.00160506
0.000164602
0.00316268
0.0126587
0.0285838
0.0454933
0.0548684
0.0523905
0.0419133
0.0323697
0.0293005
0.0295594
0.026189
0.0163538
0.00423237
-0.00368328
-0.00259117
0.00761833
0.023333
0.0379049
0.043373
0.0396978
0.0313316
0.0211228
0.00655943
-0.0154734
-0.0393072
-0.0574053
-0.0715321
-0.0876093
-0.103601
-0.114418
-0.119221
-0.123504
-0.128304
-0.127812
-0.121349
-0.114222
-0.105649
-0.091401
-0.0734192
-0.0544357
-0.0335791
-0.0102051
0.0134981
0.0360171
0.056837
0.0753733
0.0902027
0.100387
0.105541
0.105541
0.100386
0.0902017
0.0753721
0.0568358
0.036016
0.0134972
-0.0102056
-0.0335793
-0.0544356
-0.0734187
-0.0914003
-0.105648
-0.114221
-0.121348
-0.127811
-0.128303
-0.123503
-0.11922
-0.114417
-0.103601
-0.0876088
-0.0715318
-0.0574053
-0.0393074
-0.0154738
0.00655897
0.0211221
0.0313308
0.0396971
0.0433725
0.0379044
0.0233324
0.00761793
-0.00259135
-0.00368322
0.00423279
0.0163547
0.0261902
0.0295605
0.0293012
0.03237
0.0419136
0.0523909
0.054869
0.0454939
0.0285841
0.0126588
0.00316273
0.000164629
0.00126141
0.00658767
0.0185887
0.0367158
0.0548684
0.0642399
0.0605384
0.0478965
0.0353354
0.0283873
0.0244179
0.0169435
0.00355243
-0.0112407
-0.0205801
-0.0188562
-0.00572785
0.0143312
0.0336017
0.0433939
0.04335
0.0376475
0.0282396
0.012996
-0.00980034
-0.034469
-0.0540039
-0.0699845
-0.0871941
-0.102743
-0.11266
-0.117306
-0.120756
-0.123553
-0.121784
-0.115341
-0.108386
-0.100098
-0.0870366
-0.0710902
-0.0540801
-0.0346155
-0.0124871
0.0101278
0.0324469
0.0538686
0.0730608
0.088562
0.0995261
0.105207
0.105207
0.0995259
0.0885618
0.0730606
0.0538684
0.0324467
0.0101277
-0.012487
-0.0346154
-0.0540798
-0.0710898
-0.0870362
-0.100098
-0.108385
-0.11534
-0.121783
-0.123552
-0.120755
-0.117305
-0.112659
-0.102742
-0.0871934
-0.069984
-0.0540038
-0.0344692
-0.00980074
0.0129955
0.028239
0.0376469
0.0433495
0.0433936
0.0336016
0.014331
-0.00572795
-0.0188561
-0.0205799
-0.0112403
0.00355327
0.0169446
0.0244189
0.0283879
0.0353355
0.0478965
0.0605387
0.0642404
0.0548689
0.0367162
0.0185889
0.00658778
0.00126146
0.000941093
0.0058034
0.0175616
0.0352451
0.0523905
0.0605384
0.0558752
0.0424623
0.028431
0.0184789
0.0104568
-0.00118394
-0.0180864
-0.0357286
-0.0472165
-0.0462702
-0.0320441
-0.00942136
0.0132346
0.0276412
0.033109
0.0330067
0.0279099
0.0160383
-0.00244507
-0.0226464
-0.0393468
-0.0540355
-0.0695518
-0.0825295
-0.0905278
-0.0951409
-0.098156
-0.0990751
-0.0963995
-0.0907103
-0.0843035
-0.0762751
-0.0647112
-0.051401
-0.0371655
-0.0202507
-0.00111455
0.0182431
0.0378933
0.0574008
0.0748044
0.0888466
0.0990436
0.104487
0.104487
0.0990441
0.0888473
0.0748053
0.0574018
0.0378943
0.018244
-0.00111374
-0.02025
-0.037165
-0.0514006
-0.0647109
-0.0762748
-0.0843031
-0.0907096
-0.0963987
-0.0990742
-0.098155
-0.0951398
-0.0905267
-0.0825286
-0.0695512
-0.0540351
-0.0393467
-0.0226466
-0.00244535
0.0160381
0.0279098
0.0330067
0.0331091
0.0276414
0.0132349
-0.00942116
-0.032044
-0.0462703
-0.0472166
-0.0357286
-0.018086
-0.00118333
0.0104574
0.0184791
0.0284308
0.0424619
0.0558751
0.0605387
0.0523909
0.0352454
0.0175617
0.00580338
0.000941077
-0.000287956
0.00226125
0.0119719
0.0274492
0.0419133
0.0478965
0.0424623
0.0293901
0.015403
0.0036417
-0.00762581
-0.022551
-0.0419261
-0.0616606
-0.07528
-0.0763676
-0.0634941
-0.0413832
-0.0184707
-0.00159186
0.0081366
0.0130581
0.0125255
0.00526609
-0.00635098
-0.01872
-0.0292453
-0.0396403
-0.0505453
-0.0586702
-0.0631338
-0.0668401
-0.0691681
-0.0681554
-0.0646606
-0.0598886
-0.0539355
-0.0456928
-0.0352269
-0.0240779
-0.0122905
0.00195815
0.0173952
0.0323321
0.0475257
0.0629627
0.0763634
0.0869265
0.0947732
0.0991484
0.0991488
0.0947743
0.0869281
0.0763654
0.0629648
0.0475277
0.0323339
0.0173967
0.00195926
-0.0122897
-0.0240773
-0.0352265
-0.0456926
-0.0539351
-0.059888
-0.06466
-0.0681548
-0.0691675
-0.0668394
-0.0631333
-0.05867
-0.0505452
-0.0396402
-0.0292453
-0.0187202
-0.0063511
0.00526625
0.0125259
0.0130586
0.00813718
-0.00159122
-0.0184701
-0.0413829
-0.0634941
-0.0763679
-0.0752805
-0.061661
-0.0419262
-0.0225508
-0.00762554
0.00364168
0.0154026
0.0293895
0.0424619
0.0478965
0.0419136
0.0274493
0.0119718
0.00226093
-0.000288096
-0.00114766
-0.000198539
0.00793569
0.0211672
0.0323697
0.0353354
0.028431
0.015403
0.00141639
-0.0122813
-0.0269291
-0.0450321
-0.0664201
-0.0873717
-0.102217
-0.104989
-0.0939357
-0.0736666
-0.0525683
-0.0354836
-0.0237798
-0.0161156
-0.0139763
-0.0181372
-0.0236593
-0.0281696
-0.0320739
-0.037277
-0.0421605
-0.0439429
-0.0436142
-0.0453393
-0.0464528
-0.0433018
-0.0389187
-0.0350552
-0.0295699
-0.0210445
-0.0115012
-0.00207296
0.00771922
0.0193385
0.030842
0.0408861
0.0506016
0.0604584
0.0683238
0.0739854
0.0782924
0.0809174
0.0809179
0.0782937
0.0739876
0.0683264
0.0604612
0.0506044
0.0408886
0.0308441
0.0193401
0.00772043
-0.0020721
-0.0115006
-0.0210441
-0.0295696
-0.035055
-0.0389186
-0.0433018
-0.046453
-0.0453395
-0.0436145
-0.0439435
-0.042161
-0.0372773
-0.032074
-0.0281697
-0.0236592
-0.0181367
-0.0139754
-0.0161148
-0.0237791
-0.035483
-0.0525678
-0.0736665
-0.0939362
-0.10499
-0.102217
-0.0873723
-0.0664203
-0.0450319
-0.0269287
-0.0122811
0.00141621
0.0154026
0.0284308
0.0353355
0.03237
0.0211673
0.00793529
-0.000199119
-0.00114792
-0.000871577
0.000675155
0.00907445
0.0211861
0.0293005
0.0283873
0.0184789
0.0036417
-0.0122813
-0.0295954
-0.0489228
-0.0707751
-0.0937093
-0.114303
-0.128144
-0.130366
-0.119462
-0.100206
-0.0805277
-0.0633693
-0.0505
-0.0419912
-0.0399032
-0.0439902
-0.0466121
-0.0461929
-0.0458667
-0.0471579
-0.0465901
-0.0422591
-0.0368878
-0.0354725
-0.0341611
-0.0282685
-0.0225664
-0.0191856
-0.0140161
-0.00557803
0.00260191
0.0100273
0.0175907
0.0260001
0.033062
0.0378747
0.0416009
0.0450649
0.0467352
0.046986
0.0472672
0.0477919
0.0477924
0.0472686
0.0469882
0.046738
0.0450679
0.041604
0.0378777
0.0330646
0.0260023
0.0175925
0.0100287
0.00260278
-0.00557757
-0.014016
-0.0191859
-0.0225669
-0.0282694
-0.0341622
-0.0354736
-0.0368889
-0.0422602
-0.0465909
-0.0471584
-0.0458668
-0.0461928
-0.0466118
-0.0439895
-0.0399022
-0.0419904
-0.0504995
-0.063369
-0.0805277
-0.100206
-0.119463
-0.130367
-0.128145
-0.114304
-0.0937095
-0.0707747
-0.0489222
-0.0295949
-0.0122811
0.0036417
0.0184791
0.0283879
0.0293012
0.0211864
0.0090741
0.000674501
-0.000871895
-0.000171305
0.00282323
0.012416
0.0241921
0.0295594
0.0244179
0.0104568
-0.00762581
-0.0269291
-0.0489228
-0.073771
-0.0998865
-0.124417
-0.143945
-0.15505
-0.154298
-0.140872
-0.119969
-0.0988186
-0.0792218
-0.0636608
-0.0539308
-0.0525682
-0.0579514
-0.0605641
-0.0590338
-0.058287
-0.0588294
-0.0557226
-0.0477767
-0.038892
-0.0344248
-0.0302405
-0.0215847
-0.0142675
-0.0107624
-0.00573001
0.00188291
0.00774511
0.0121935
0.0165104
0.0204166
0.0220505
0.0212035
0.0188232
0.0158248
0.0115952
0.00696482
0.00359266
0.00211494
0.0021153
0.00359376
0.00696658
0.0115975
0.0158275
0.0188262
0.0212066
0.0220534
0.0204192
0.0165126
0.0121951
0.0077461
0.00188328
-0.0057303
-0.0107632
-0.0142688
-0.0215863
-0.0302422
-0.0344264
-0.0388933
-0.0477779
-0.0557233
-0.0588296
-0.0582868
-0.0590334
-0.0605637
-0.0579508
-0.0525675
-0.0539303
-0.0636607
-0.0792219
-0.0988189
-0.119969
-0.140873
-0.154299
-0.155051
-0.143946
-0.124417
-0.099886
-0.0737703
-0.0489222
-0.0269287
-0.00762553
0.0104574
0.0244189
0.0295605
0.0241927
0.0124158
0.00282257
-0.000171644
-0.000334279
0.00261676
0.0124329
0.0234474
0.026189
0.0169435
-0.00118394
-0.022551
-0.0450321
-0.0707751
-0.0998865
-0.129256
-0.154727
-0.172654
-0.180108
-0.175117
-0.157705
-0.133485
-0.108762
-0.0847234
-0.0644745
-0.0517569
-0.0498716
-0.0558444
-0.0595031
-0.0592286
-0.0608544
-0.063449
-0.060762
-0.0520786
-0.0420468
-0.0355131
-0.0284325
-0.0170509
-0.00761239
-0.00291693
0.00273016
0.00940037
0.0125622
0.0133574
0.0135267
0.0117602
0.00708665
0.000315066
-0.00785792
-0.0167177
-0.0258045
-0.0340343
-0.040041
-0.0430537
-0.0430535
-0.0400403
-0.0340332
-0.0258029
-0.0167156
-0.00785542
0.000317828
0.00708948
0.0117629
0.013529
0.0133591
0.0125631
0.00940061
0.00272961
-0.00291814
-0.00761397
-0.0170526
-0.0284343
-0.0355146
-0.0420479
-0.0520793
-0.0607623
-0.063449
-0.0608541
-0.0592283
-0.0595028
-0.0558442
-0.0498712
-0.0517568
-0.0644746
-0.0847236
-0.108762
-0.133486
-0.157706
-0.175118
-0.180108
-0.172655
-0.154727
-0.129256
-0.099886
-0.0707747
-0.0450319
-0.0225508
-0.00118334
0.0169446
0.0261902
0.023448
0.0124326
0.002616
-0.000334666
-0.00185743
-0.00140511
0.00679807
0.0161239
0.0163538
0.00355243
-0.0180864
-0.0419261
-0.0664201
-0.0937093
-0.124417
-0.154727
-0.179466
-0.195068
-0.19865
-0.189641
-0.169038
-0.142317
-0.114188
-0.0852721
-0.0592494
-0.042092
-0.0378849
-0.0421461
-0.0455873
-0.0464201
-0.0505821
-0.0556872
-0.0547163
-0.0475948
-0.0388915
-0.0317027
-0.022325
-0.00916885
0.00199308
0.00838486
0.0152306
0.021117
0.0217028
0.0187664
0.0145416
0.00678152
-0.00436469
-0.0168056
-0.0300164
-0.0436629
-0.0562654
-0.0666465
-0.0741302
-0.0780814
-0.0780813
-0.07413
-0.066646
-0.0562645
-0.0436616
-0.0300146
-0.0168035
-0.00436237
0.00678384
0.0145436
0.0187679
0.0217037
0.0211173
0.0152303
0.00838392
0.00199196
-0.00916999
-0.0223262
-0.0317036
-0.0388921
-0.0475951
-0.0547164
-0.0556872
-0.0505821
-0.0464201
-0.0455875
-0.0421463
-0.037885
-0.0420921
-0.0592496
-0.0852722
-0.114188
-0.142317
-0.169039
-0.189641
-0.198651
-0.195068
-0.179466
-0.154727
-0.124417
-0.0937095
-0.0664203
-0.0419262
-0.018086
0.00355325
0.0163547
0.0161242
0.00679748
-0.00140609
-0.0018579
-0.00405166
-0.00734454
-0.00161049
0.00590781
0.00423237
-0.0112407
-0.0357286
-0.0616606
-0.0873717
-0.114303
-0.143945
-0.172654
-0.195068
-0.208076
-0.208193
-0.195955
-0.173341
-0.145227
-0.11489
-0.0824566
-0.0518473
-0.0306807
-0.0231711
-0.0235982
-0.0250183
-0.0257587
-0.0311583
-0.0378939
-0.0385968
-0.0341053
-0.0284269
-0.0222699
-0.0124049
0.000302488
0.0115041
0.018827
0.0262952
0.0311434
0.029456
0.0234146
0.015548
0.00290475
-0.0134711
-0.0302128
-0.0469628
-0.0638021
-0.0784717
-0.0897773
-0.0978274
-0.102199
-0.102199
-0.0978274
-0.0897772
-0.0784715
-0.0638016
-0.046962
-0.0302118
-0.0134698
0.00290614
0.0155493
0.0234158
0.0294569
0.0311441
0.0262954
0.018827
0.0115041
0.000302415
-0.012405
-0.0222701
-0.028427
-0.0341054
-0.038597
-0.0378943
-0.0311588
-0.0257591
-0.0250187
-0.0235986
-0.0231713
-0.0306806
-0.0518472
-0.0824564
-0.11489
-0.145227
-0.173341
-0.195955
-0.208193
-0.208076
-0.195068
-0.172655
-0.143946
-0.114304
-0.0873723
-0.061661
-0.0357286
-0.0112403
0.00423279
0.00590763
-0.00161143
-0.00734572
-0.00405221
-0.00576468
-0.011916
-0.0079304
-0.001326
-0.00368328
-0.0205801
-0.0472165
-0.07528
-0.102217
-0.128144
-0.15505
-0.180108
-0.19865
-0.208193
-0.204742
-0.189918
-0.166766
-0.139264
-0.109427
-0.0765386
-0.044408
-0.0217588
-0.0121366
-0.00911968
-0.00830546
-0.00826776
-0.0132513
-0.0195972
-0.0201691
-0.0173535
-0.0147233
-0.0101663
-0.00111663
0.00929221
0.0184404
0.0249331
0.0313555
0.0343474
0.0305096
0.022229
0.0120774
-0.00325513
-0.0223386
-0.0409822
-0.0591035
-0.0771565
-0.0924371
-0.103799
-0.111882
-0.116331
-0.116331
-0.111882
-0.103799
-0.0924374
-0.0771569
-0.0591039
-0.0409825
-0.0223387
-0.00325494
0.0120779
0.0222298
0.0305107
0.0343487
0.0313568
0.0249344
0.0184416
0.00929326
-0.00111592
-0.010166
-0.0147232
-0.0173537
-0.0201697
-0.019598
-0.0132521
-0.00826843
-0.008306
-0.00912005
-0.0121367
-0.0217586
-0.0444077
-0.0765384
-0.109427
-0.139264
-0.166766
-0.189919
-0.204743
-0.208193
-0.198651
-0.180108
-0.155051
-0.128145
-0.102217
-0.0752805
-0.0472167
-0.0205799
-0.00368321
-0.00132649
-0.00793151
-0.0119173
-0.00576523
-0.00631666
-0.0131772
-0.00915666
-0.00162173
-0.00259117
-0.0188562
-0.0462702
-0.0763676
-0.104989
-0.130366
-0.154298
-0.175117
-0.189641
-0.195955
-0.189918
-0.173562
-0.150837
-0.124969
-0.096926
-0.0654862
-0.0345223
-0.0134548
-0.00412137
0.000272758
0.00202403
0.00193575
-0.00264795
-0.00755819
-0.00676037
-0.00457829
-0.00428355
-0.000921462
0.00667281
0.0134948
0.0186751
0.022416
0.0258626
0.0258515
0.0197692
0.0101142
-0.000714322
-0.0160745
-0.0345987
-0.0520665
-0.0688179
-0.085651
-0.0997614
-0.110205
-0.117756
-0.121935
-0.121935
-0.117757
-0.110205
-0.0997625
-0.0856524
-0.0688195
-0.0520681
-0.0346001
-0.0160754
-0.000714588
0.0101146
0.0197704
0.0258533
0.0258647
0.0224181
0.0186772
0.0134965
0.00667391
-0.00092111
-0.00428367
-0.00457872
-0.00676127
-0.00755937
-0.0026489
0.00193511
0.00202359
0.00027252
-0.00412141
-0.0134545
-0.0345218
-0.065486
-0.096926
-0.12497
-0.150837
-0.173563
-0.189919
-0.195955
-0.189641
-0.175118
-0.154299
-0.130367
-0.10499
-0.076368
-0.0462703
-0.0188561
-0.00259134
-0.00162241
-0.0091578
-0.0131783
-0.00631717
-0.00554323
-0.0107801
-0.00493395
0.00523493
0.00761833
-0.00572785
-0.0320441
-0.0634941
-0.0939357
-0.119462
-0.140872
-0.157705
-0.169038
-0.173341
-0.166766
-0.150837
-0.129792
-0.106294
-0.0803364
-0.0512651
-0.023121
-0.00518755
0.00284954
0.00746365
0.00918208
0.00813045
0.00365717
0.000805761
0.00368009
0.00659591
0.00636112
0.00973911
0.0159524
0.0189726
0.0194937
0.0192764
0.0181591
0.0138115
0.00502804
-0.00575888
-0.0165321
-0.0303891
-0.0460918
-0.0601724
-0.0734465
-0.0870168
-0.0982456
-0.106618
-0.112851
-0.116322
-0.116322
-0.112852
-0.106619
-0.0982475
-0.0870191
-0.0734489
-0.0601748
-0.0460939
-0.0303906
-0.0165327
-0.00575864
0.00502921
0.0138134
0.0181615
0.0192789
0.019496
0.0189745
0.0159537
0.00973954
0.00636094
0.0065954
0.00367915
0.000804592
0.0036563
0.00812992
0.00918166
0.00746335
0.00284933
-0.00518747
-0.0231208
-0.0512651
-0.0803366
-0.106294
-0.129793
-0.150837
-0.166766
-0.173341
-0.169039
-0.157706
-0.140873
-0.119463
-0.0939362
-0.0634941
-0.032044
-0.00572794
0.00761795
0.00523412
-0.00493505
-0.0107811
-0.00554367
-0.0035791
-0.00529087
0.00343724
0.0168131
0.023333
0.0143312
-0.00942136
-0.0413832
-0.0736666
-0.100206
-0.119969
-0.133485
-0.142317
-0.145227
-0.139264
-0.124969
-0.106294
-0.0854583
-0.0610547
-0.0336282
-0.00748787
0.0085992
0.0162929
0.0213916
0.0230045
0.0205334
0.0156041
0.0144581
0.0187653
0.0222322
0.0217716
0.024988
0.0295342
0.0287554
0.0243289
0.0193419
0.0127093
0.00308722
-0.00886157
-0.0210239
-0.0319846
-0.0442333
-0.0564962
-0.0664732
-0.075362
-0.0844597
-0.0914717
-0.0964735
-0.100335
-0.102566
-0.102567
-0.100337
-0.0964755
-0.0914742
-0.0844625
-0.0753648
-0.0664759
-0.0564984
-0.0442348
-0.0319855
-0.0210239
-0.0088607
0.00308883
0.0127114
0.0193442
0.0243311
0.0287573
0.0295356
0.0249888
0.0217719
0.0222322
0.0187649
0.0144573
0.0156034
0.0205329
0.023004
0.021391
0.0162924
0.00859891
-0.00748802
-0.0336285
-0.0610553
-0.0854588
-0.106294
-0.12497
-0.139264
-0.145227
-0.142317
-0.133485
-0.119969
-0.100206
-0.0736666
-0.0413829
-0.00942117
0.014331
0.0233325
0.0168123
0.00343634
-0.00529162
-0.00357941
-0.00125967
0.000873557
0.0120258
0.0277116
0.0379049
0.0336017
0.0132346
-0.0184707
-0.0525683
-0.0805277
-0.0988186
-0.108762
-0.114188
-0.11489
-0.109427
-0.096926
-0.0803364
-0.0610547
-0.0362841
-0.00861925
0.0169459
0.0327037
0.0410499
0.0474121
0.0494467
0.0452739
0.0389126
0.0375894
0.0406838
0.0422837
0.0399897
0.0413175
0.0429308
0.0377093
0.0281127
0.0184695
0.00667014
-0.00800746
-0.022886
-0.0362392
-0.0476079
-0.0585807
-0.0677549
-0.0738905
-0.0783953
-0.0826403
-0.0847947
-0.0854381
-0.0860358
-0.0866372
-0.0866377
-0.0860373
-0.0854404
-0.0847974
-0.0826431
-0.078398
-0.073893
-0.0677569
-0.0585822
-0.0476089
-0.0362396
-0.0228857
-0.00800665
0.00667141
0.0184711
0.0281145
0.0377111
0.0429324
0.0413189
0.0399906
0.0422844
0.0406841
0.0375894
0.0389124
0.0452736
0.0494462
0.0474114
0.0410493
0.0327033
0.0169456
-0.00861967
-0.0362848
-0.0610553
-0.0803366
-0.096926
-0.109427
-0.11489
-0.114188
-0.108762
-0.0988189
-0.0805277
-0.0525678
-0.0184701
0.0132349
0.0336016
0.0379044
0.027711
0.0120252
0.000873159
-0.00125983
0.000430005
0.00482949
0.0160562
0.0313766
0.043373
0.0433939
0.0276412
-0.00159186
-0.0354836
-0.0633693
-0.0792218
-0.0847234
-0.0852721
-0.0824566
-0.0765386
-0.0654862
-0.0512651
-0.0336282
-0.00861925
0.0191578
0.0442047
0.0603671
0.0704238
0.0791691
0.0824752
0.0770325
0.0695061
0.0670643
0.0670624
0.0648678
0.059171
0.0567483
0.0540105
0.0439923
0.0298441
0.0168326
0.00135211
-0.0169537
-0.0335716
-0.0472422
-0.0587395
-0.0685263
-0.0751117
-0.0779984
-0.0786241
-0.078472
-0.0762588
-0.072724
-0.0701214
-0.0692456
-0.0692459
-0.0701224
-0.0727257
-0.0762609
-0.0784742
-0.0786263
-0.0780006
-0.0751135
-0.0685278
-0.0587408
-0.0472432
-0.0335722
-0.0169539
0.00135235
0.0168333
0.0298453
0.043994
0.0540124
0.0567503
0.0591728
0.0648693
0.0670635
0.0670649
0.0695063
0.0770324
0.0824748
0.0791684
0.0704232
0.0603667
0.0442045
0.0191575
-0.00861967
-0.0336285
-0.0512651
-0.065486
-0.0765384
-0.0824564
-0.0852722
-0.0847236
-0.0792219
-0.0633691
-0.035483
-0.00159123
0.0276414
0.0433936
0.0433725
0.0313761
0.0160559
0.00482942
0.000429978
0.00144896
0.00646134
0.0154741
0.0279076
0.0396978
0.04335
0.033109
0.0081366
-0.0237798
-0.0505
-0.0636608
-0.0644745
-0.0592494
-0.0518473
-0.044408
-0.0345223
-0.023121
-0.00748787
0.0169459
0.0442047
0.0684958
0.084921
0.0965534
0.107445
0.112129
0.106248
0.0985078
0.0949004
0.0913793
0.0848913
0.0751445
0.0682214
0.0610696
0.0473552
0.0306096
0.016677
0.000381432
-0.0184654
-0.0342401
-0.046342
-0.0565903
-0.0641652
-0.0677461
-0.0674158
-0.0644774
-0.0606707
-0.0554193
-0.0491906
-0.044618
-0.0429878
-0.0429878
-0.0446182
-0.0491912
-0.0554202
-0.0606719
-0.064479
-0.0674176
-0.0677478
-0.0641669
-0.056592
-0.0463435
-0.0342414
-0.0184665
0.000380721
0.0166768
0.0306101
0.0473565
0.0610714
0.0682236
0.0751467
0.0848933
0.0913808
0.0949014
0.0985082
0.106248
0.112129
0.107445
0.096553
0.0849208
0.0684957
0.0442045
0.0169456
-0.00748802
-0.0231208
-0.0345218
-0.0444077
-0.0518472
-0.0592496
-0.0644746
-0.0636607
-0.0504996
-0.0237791
0.00813718
0.0331091
0.0433496
0.0396971
0.0279071
0.015474
0.00646146
0.00144902
0.00247386
0.007735
0.0135037
0.0214753
0.0313316
0.0376475
0.0330067
0.0130581
-0.0161156
-0.0419912
-0.0539308
-0.0517569
-0.042092
-0.0306807
-0.0217588
-0.0134548
-0.00518755
0.0085992
0.0327037
0.0603671
0.084921
0.102392
0.116574
0.130473
0.137713
0.133458
0.127385
0.123714
0.117558
0.107315
0.0939688
0.082923
0.0716576
0.0548424
0.0366352
0.0231608
0.00792148
-0.00930931
-0.0226174
-0.0321534
-0.0403422
-0.0450817
-0.0456327
-0.0426997
-0.0372539
-0.0312271
-0.0250392
-0.0186222
-0.0141025
-0.0126736
-0.0126734
-0.0141019
-0.0186216
-0.0250388
-0.0312272
-0.0372546
-0.0427008
-0.0456342
-0.0450835
-0.0403442
-0.0321553
-0.0226192
-0.00931103
0.00792019
0.0231601
0.0366352
0.0548433
0.0716592
0.082925
0.093971
0.107318
0.117559
0.123716
0.127385
0.133459
0.137713
0.130473
0.116574
0.102392
0.0849208
0.0603667
0.0327033
0.00859891
-0.00518747
-0.0134545
-0.0217587
-0.0306806
-0.0420921
-0.0517569
-0.0539303
-0.0419904
-0.0161148
0.0130586
0.0330067
0.0376469
0.0313309
0.0214747
0.0135036
0.00773519
0.00247396
0.00404954
0.010242
0.0126917
0.0151347
0.0211228
0.0282396
0.0279099
0.0125255
-0.0139763
-0.0399032
-0.0525682
-0.0498716
-0.0378849
-0.0231711
-0.0121366
-0.00412137
0.00284954
0.0162929
0.0410499
0.0704238
0.0965534
0.116574
0.134694
0.151878
0.161505
0.158964
0.154372
0.150469
0.141966
0.128314
0.112049
0.0974401
0.0821656
0.0626784
0.0437419
0.0310628
0.0173708
0.00282532
-0.00700284
-0.0132263
-0.0187644
-0.0203369
-0.0181532
-0.0137738
-0.00753256
-0.000957588
0.00435935
0.00892201
0.0119443
0.012754
0.0127542
0.0119451
0.00892323
0.00436055
-0.000956808
-0.00753229
-0.0137741
-0.0181542
-0.0203386
-0.0187664
-0.0132284
-0.007005
0.00282329
0.0173693
0.0310619
0.0437415
0.0626787
0.0821667
0.0974417
0.112051
0.128317
0.141968
0.150471
0.154374
0.158965
0.161506
0.151878
0.134694
0.116574
0.096553
0.0704232
0.0410493
0.0162924
0.00284933
-0.00412141
-0.0121367
-0.0231713
-0.037885
-0.0498712
-0.0525675
-0.0399023
-0.0139754
0.0125259
0.0279098
0.028239
0.0211221
0.0151344
0.0126918
0.0102423
0.00404969
0.00530021
0.0117899
0.0101384
0.00588491
0.00655943
0.012996
0.0160383
0.00526609
-0.0181372
-0.0439902
-0.0579514
-0.0558444
-0.0421461
-0.0235982
-0.00911968
0.000272758
0.00746365
0.0213916
0.0474121
0.0791691
0.107445
0.130473
0.151878
0.170114
0.17965
0.176769
0.171517
0.165554
0.153391
0.135786
0.117159
0.0999661
0.0816948
0.0609932
0.042467
0.0306976
0.0187387
0.00773618
0.00250916
0.000649209
-0.00136058
0.000659244
0.00536809
0.00995864
0.0151589
0.0208757
0.0245868
0.0268316
0.0284016
0.02904
0.0290401
0.0284021
0.0268326
0.0245881
0.020877
0.01516
0.00995932
0.00536785
0.000658011
-0.00136243
0.000647075
0.00250684
0.00773397
0.018737
0.0306965
0.0424661
0.0609928
0.081695
0.0999669
0.11716
0.135788
0.153393
0.165556
0.171519
0.17677
0.179651
0.170115
0.151878
0.130473
0.107445
0.0791684
0.0474114
0.021391
0.00746335
0.000272533
-0.00912004
-0.0235986
-0.0421463
-0.0558442
-0.0579508
-0.0439896
-0.0181367
0.00526626
0.0160381
0.0129955
0.00655896
0.00588481
0.0101387
0.0117904
0.00530042
0.00513299
0.00941068
0.00186318
-0.0102257
-0.0154734
-0.00980034
-0.00244507
-0.00635098
-0.0236593
-0.0466121
-0.0605641
-0.0595031
-0.0455873
-0.0250183
-0.00830546
0.00202403
0.00918208
0.0230045
0.0494467
0.0824752
0.112129
0.137713
0.161505
0.17965
0.187803
0.183108
0.175429
0.165989
0.149122
0.12742
0.107382
0.0891436
0.0697713
0.0498753
0.0332791
0.0230576
0.0133812
0.00632914
0.00612579
0.00910105
0.0110219
0.0164754
0.023202
0.0269674
0.0297522
0.0336529
0.0358404
0.0365393
0.0376234
0.0387785
0.0387785
0.0376234
0.0365397
0.0358412
0.0336542
0.0297537
0.0269687
0.0232024
0.0164749
0.0110207
0.00909922
0.00612361
0.00632695
0.0133793
0.023056
0.0332776
0.0498741
0.0697706
0.0891435
0.107383
0.127421
0.149124
0.165991
0.175431
0.18311
0.187805
0.179651
0.161506
0.137713
0.112129
0.0824748
0.0494462
0.023004
0.00918165
0.00202359
-0.00830599
-0.0250187
-0.0455875
-0.0595028
-0.0605637
-0.0466118
-0.0236591
-0.00635109
-0.00244534
-0.00980074
-0.0154738
-0.0102258
0.0018635
0.00941112
0.00513319
0.00431122
0.00532361
-0.00844593
-0.0282282
-0.0393072
-0.034469
-0.0226464
-0.01872
-0.0281696
-0.0461929
-0.0590338
-0.0592286
-0.0464201
-0.0257587
-0.00826776
0.00193575
0.00813045
0.0205334
0.0452739
0.0770325
0.106248
0.133458
0.158964
0.176769
0.183108
0.176428
0.166598
0.154352
0.133917
0.109793
0.0903643
0.0730964
0.0549985
0.0383298
0.0260476
0.0192753
0.0131486
0.0102158
0.0145778
0.0217365
0.0266228
0.0340352
0.0416102
0.0441648
0.0443558
0.0461897
0.0471166
0.0470809
0.0481525
0.0497389
0.049739
0.0481526
0.047081
0.0471171
0.0461907
0.0443571
0.044166
0.0416111
0.0340357
0.0266227
0.0217356
0.0145763
0.010214
0.0131466
0.0192733
0.0260456
0.038328
0.0549973
0.0730957
0.0903642
0.109794
0.133918
0.154354
0.1666
0.17643
0.18311
0.17677
0.158965
0.133459
0.106248
0.0770324
0.0452736
0.0205329
0.00812991
0.00193511
-0.00826842
-0.0257591
-0.0464201
-0.0592283
-0.0590335
-0.0461928
-0.0281697
-0.0187202
-0.0226466
-0.0344692
-0.0393074
-0.0282283
-0.00844575
0.00532391
0.00431136
0.00397943
0.00298089
-0.0153127
-0.0412272
-0.0574053
-0.0540039
-0.0393468
-0.0292453
-0.0320739
-0.0458667
-0.058287
-0.0608544
-0.0505821
-0.0311583
-0.0132513
-0.00264795
0.00365717
0.0156041
0.0389126
0.0695061
0.0985078
0.127385
0.154372
0.171517
0.175429
0.166598
0.155078
0.140574
0.117334
0.0912959
0.0723845
0.0558367
0.0390679
0.02571
0.0180224
0.0152025
0.0129132
0.0134655
0.0206543
0.0296876
0.0349452
0.0416318
0.0484309
0.0502027
0.049135
0.0496765
0.0496956
0.0491356
0.0495783
0.0505261
0.0505264
0.0495789
0.0491359
0.0496959
0.049677
0.0491354
0.0502032
0.0484318
0.0416331
0.0349462
0.0296878
0.0206537
0.0134642
0.0129112
0.0152002
0.0180201
0.025708
0.0390663
0.0558356
0.0723839
0.0912959
0.117335
0.140575
0.155079
0.1666
0.175431
0.171519
0.154374
0.127385
0.0985082
0.0695063
0.0389124
0.0156034
0.0036563
-0.00264888
-0.0132521
-0.0311588
-0.0505821
-0.0608542
-0.0582868
-0.0458668
-0.032074
-0.0292453
-0.0393467
-0.0540038
-0.0574053
-0.0412272
-0.0153125
0.00298115
0.00397956
0.00361858
0.00100047
-0.0206672
-0.0512206
-0.0715321
-0.0699845
-0.0540355
-0.0396403
-0.037277
-0.0471579
-0.0588294
-0.063449
-0.0556872
-0.0378939
-0.0195972
-0.00755819
0.000805761
0.0144581
0.0375894
0.0670643
0.0949004
0.123714
0.150469
0.165554
0.165989
0.154352
0.140574
0.123481
0.0980051
0.0708033
0.0524156
0.0364196
0.0206612
0.00993731
0.00607212
0.00696285
0.00855459
0.0120214
0.0201534
0.0286412
0.0320572
0.0359434
0.0407702
0.0425139
0.0420927
0.0426918
0.0422771
0.0410159
0.0399166
0.0391655
0.0391659
0.0399173
0.0410164
0.0422773
0.0426918
0.0420923
0.0425137
0.0407709
0.0359449
0.0320587
0.0286423
0.0201538
0.0120208
0.00855297
0.00696061
0.00606985
0.00993524
0.0206593
0.036418
0.0524145
0.0708025
0.098005
0.123481
0.140575
0.154354
0.165991
0.165556
0.150471
0.123716
0.0949014
0.0670649
0.0375894
0.0144573
0.000804592
-0.00755935
-0.019598
-0.0378943
-0.0556872
-0.063449
-0.0588296
-0.0471584
-0.0372773