/*--------------------------------*- C++ -*----------------------------------*\
| =========                 |                                                 |
| \\      /  F ield         | OpenFOAM: The Open Source CFD Toolbox           |
|  \\    /   O peration     | Version:  v2106                                 |
|   \\  /    A nd           | Website:  www.openfoam.com                      |
|    \\/     M anipulation  |                                                 |
\*---------------------------------------------------------------------------*/
FoamFile
{
    version     2.0;
    format      ascii;
    arch        "LSB;label=32;scalar=64";
    class       volVectorField;
    location    "2";
    object      U;
}
// * * * * * * * * * * * * * * * * * * * * * * * * * * * * * * * * * * * * * //

dimensions      [0 1 -1 0 0 0 0];

internalField   nonuniform List<vector> 
400
(
(5.10216e-13 5.10216e-13 0)
(2.7323e-14 5.39441e-13 0)
(2.81275e-14 5.70145e-13 0)
(2.82953e-14 6.01826e-13 0)
(2.7553e-14 6.33672e-13 0)
(2.5616e-14 6.64492e-13 0)
(2.22504e-14 6.92704e-13 0)
(1.73614e-14 7.16417e-13 0)
(1.10813e-14 7.33665e-13 0)
(3.81336e-15 7.42775e-13 0)
(-3.81336e-15 7.42775e-13 0)
(-1.10813e-14 7.33665e-13 0)
(-1.73614e-14 7.16417e-13 0)
(-2.22504e-14 6.92704e-13 0)
(-2.5616e-14 6.64492e-13 0)
(-2.7553e-14 6.33672e-13 0)
(-2.82953e-14 6.01826e-13 0)
(-2.81275e-14 5.70145e-13 0)
(-2.7323e-14 5.39441e-13 0)
(-5.10216e-13 5.10216e-13 0)
(5.39441e-13 2.7323e-14 0)
(3.26055e-14 3.26055e-14 0)
(3.42577e-14 3.89195e-14 0)
(3.5232e-14 4.63366e-14 0)
(3.51133e-14 5.48105e-14 0)
(3.34163e-14 6.40849e-14 0)
(2.96743e-14 7.35943e-14 0)
(2.35995e-14 8.24128e-14 0)
(1.5277e-14 8.93387e-14 0)
(5.29695e-15 9.31811e-14 0)
(-5.29695e-15 9.31811e-14 0)
(-1.5277e-14 8.93387e-14 0)
(-2.35995e-14 8.24128e-14 0)
(-2.96743e-14 7.35943e-14 0)
(-3.34163e-14 6.40849e-14 0)
(-3.51133e-14 5.48105e-14 0)
(-3.5232e-14 4.63366e-14 0)
(-3.42577e-14 3.89195e-14 0)
(-3.26055e-14 3.26055e-14 0)
(-5.39441e-13 2.7323e-14 0)
(5.70145e-13 2.81275e-14 0)
(3.89195e-14 3.42577e-14 0)
(4.18586e-14 4.18586e-14 0)
(4.41862e-14 5.11682e-14 0)
(4.53012e-14 6.23127e-14 0)
(4.43998e-14 7.51449e-14 0)
(4.05784e-14 8.9013e-14 0)
(3.31058e-14 1.02542e-13 0)
(2.18496e-14 1.13636e-13 0)
(7.65574e-15 1.19976e-13 0)
(-7.65574e-15 1.19976e-13 0)
(-2.18496e-14 1.13636e-13 0)
(-3.31058e-14 1.02542e-13 0)
(-4.05784e-14 8.9013e-14 0)
(-4.43998e-14 7.51449e-14 0)
(-4.53012e-14 6.23127e-14 0)
(-4.41862e-14 5.11682e-14 0)
(-4.18586e-14 4.18586e-14 0)
(-3.89195e-14 3.42577e-14 0)
(-5.70145e-13 2.81275e-14 0)
(6.01826e-13 2.82953e-14 0)
(4.63366e-14 3.5232e-14 0)
(5.11682e-14 4.41862e-14 0)
(5.5686e-14 5.5686e-14 0)
(5.909e-14 7.02327e-14 0)
(6.01166e-14 8.80641e-14 0)
(5.70711e-14 1.08694e-13 0)
(4.82228e-14 1.30259e-13 0)
(3.2711e-14 1.49073e-13 0)
(1.16363e-14 1.60306e-13 0)
(-1.16363e-14 1.60306e-13 0)
(-3.2711e-14 1.49073e-13 0)
(-4.82228e-14 1.30259e-13 0)
(-5.70711e-14 1.08694e-13 0)
(-6.01166e-14 8.80641e-14 0)
(-5.909e-14 7.02327e-14 0)
(-5.5686e-14 5.5686e-14 0)
(-5.11682e-14 4.41862e-14 0)
(-4.63366e-14 3.5232e-14 0)
(-6.01826e-13 2.82953e-14 0)
(6.33672e-13 2.7553e-14 0)
(5.48105e-14 3.51133e-14 0)
(6.23127e-14 4.53012e-14 0)
(7.02327e-14 5.909e-14 0)
(7.76793e-14 7.76793e-14 0)
(8.28611e-14 1.0227e-13 0)
(8.27728e-14 1.33344e-13 0)
(7.34847e-14 1.69091e-13 0)
(5.18975e-14 2.03288e-13 0)
(1.88893e-14 2.25174e-13 0)
(-1.88893e-14 2.25174e-13 0)
(-5.18975e-14 2.03288e-13 0)
(-7.34847e-14 1.69091e-13 0)
(-8.27728e-14 1.33344e-13 0)
(-8.28611e-14 1.0227e-13 0)
(-7.76793e-14 7.76793e-14 0)
(-7.02327e-14 5.909e-14 0)
(-6.23127e-14 4.53012e-14 0)
(-5.48105e-14 3.51133e-14 0)
(-6.33672e-13 2.7553e-14 0)
(6.64492e-13 2.5616e-14 0)
(6.40849e-14 3.34163e-14 0)
(7.51449e-14 4.43998e-14 0)
(8.80641e-14 6.01166e-14 0)
(1.0227e-13 8.28611e-14 0)
(1.15781e-13 1.15781e-13 0)
(1.23892e-13 1.62322e-13 0)
(1.18167e-13 2.23519e-13 0)
(8.87942e-14 2.91025e-13 0)
(3.35226e-14 3.3965e-13 0)
(-3.35226e-14 3.3965e-13 0)
(-8.87942e-14 2.91025e-13 0)
(-1.18167e-13 2.23519e-13 0)
(-1.23892e-13 1.62322e-13 0)
(-1.15781e-13 1.15781e-13 0)
(-1.0227e-13 8.28611e-14 0)
(-8.80641e-14 6.01166e-14 0)
(-7.51449e-14 4.43998e-14 0)
(-6.40849e-14 3.34163e-14 0)
(-6.64492e-13 2.5616e-14 0)
(6.92704e-13 2.22504e-14 0)
(7.35943e-14 2.96743e-14 0)
(8.9013e-14 4.05784e-14 0)
(1.08694e-13 5.70711e-14 0)
(1.33344e-13 8.27728e-14 0)
(1.62322e-13 1.23892e-13 0)
(1.9051e-13 1.9051e-13 0)
(2.02187e-13 2.95645e-13 0)
(1.68029e-13 4.41132e-13 0)
(6.75149e-14 5.71926e-13 0)
(-6.75149e-14 5.71926e-13 0)
(-1.68029e-13 4.41132e-13 0)
(-2.02187e-13 2.95645e-13 0)
(-1.9051e-13 1.9051e-13 0)
(-1.62322e-13 1.23892e-13 0)
(-1.33344e-13 8.27728e-14 0)
(-1.08694e-13 5.70711e-14 0)
(-8.9013e-14 4.05784e-14 0)
(-7.35943e-14 2.96743e-14 0)
(-6.92704e-13 2.22504e-14 0)
(7.16417e-13 1.73614e-14 0)
(8.24128e-14 2.35995e-14 0)
(1.02542e-13 3.31058e-14 0)
(1.30259e-13 4.82228e-14 0)
(1.69091e-13 7.34847e-14 0)
(2.23519e-13 1.18167e-13 0)
(2.95645e-13 2.02187e-13 0)
(3.68788e-13 3.68788e-13 0)
(3.65076e-13 6.96819e-13 0)
(1.64317e-13 1.16679e-12 0)
(-1.64317e-13 1.16679e-12 0)
(-3.65076e-13 6.96819e-13 0)
(-3.68788e-13 3.68788e-13 0)
(-2.95645e-13 2.02187e-13 0)
(-2.23519e-13 1.18167e-13 0)
(-1.69091e-13 7.34847e-14 0)
(-1.30259e-13 4.82228e-14 0)
(-1.02542e-13 3.31058e-14 0)
(-8.24128e-14 2.35995e-14 0)
(-7.16417e-13 1.73614e-14 0)
(7.33665e-13 1.10813e-14 0)
(8.93387e-14 1.5277e-14 0)
(1.13636e-13 2.18496e-14 0)
(1.49073e-13 3.2711e-14 0)
(2.03288e-13 5.18975e-14 0)
(2.91025e-13 8.87942e-14 0)
(4.41132e-13 1.68029e-13 0)
(6.96819e-13 3.65076e-13 0)
(9.66035e-13 9.66035e-13 0)
(5.3749e-13 3.41075e-12 0)
(-5.3749e-13 3.41075e-12 0)
(-9.66035e-13 9.66035e-13 0)
(-6.96819e-13 3.65076e-13 0)
(-4.41132e-13 1.68029e-13 0)
(-2.91025e-13 8.87942e-14 0)
(-2.03288e-13 5.18975e-14 0)
(-1.49073e-13 3.2711e-14 0)
(-1.13636e-13 2.18496e-14 0)
(-8.93387e-14 1.5277e-14 0)
(-7.33665e-13 1.10813e-14 0)
(7.42775e-13 3.81336e-15 0)
(9.31811e-14 5.29695e-15 0)
(1.19976e-13 7.65574e-15 0)
(1.60306e-13 1.16363e-14 0)
(2.25174e-13 1.88893e-14 0)
(3.3965e-13 3.35226e-14 0)
(5.71926e-13 6.75149e-14 0)
(1.16679e-12 1.64317e-13 0)
(3.41075e-12 5.3749e-13 0)
(2.60903e-12 2.60903e-12 0)
(-2.60903e-12 2.60903e-12 0)
(-3.41075e-12 5.3749e-13 0)
(-1.16679e-12 1.64317e-13 0)
(-5.71926e-13 6.75149e-14 0)
(-3.3965e-13 3.35226e-14 0)
(-2.25174e-13 1.88893e-14 0)
(-1.60306e-13 1.16363e-14 0)
(-1.19976e-13 7.65574e-15 0)
(-9.31811e-14 5.29695e-15 0)
(-7.42775e-13 3.81336e-15 0)
(7.42775e-13 -3.81336e-15 0)
(9.31811e-14 -5.29695e-15 0)
(1.19976e-13 -7.65574e-15 0)
(1.60306e-13 -1.16363e-14 0)
(2.25174e-13 -1.88893e-14 0)
(3.3965e-13 -3.35226e-14 0)
(5.71926e-13 -6.75149e-14 0)
(1.16679e-12 -1.64317e-13 0)
(3.41075e-12 -5.3749e-13 0)
(2.60903e-12 -2.60903e-12 0)
(-2.60903e-12 -2.60903e-12 0)
(-3.41075e-12 -5.3749e-13 0)
(-1.16679e-12 -1.64317e-13 0)
(-5.71926e-13 -6.75149e-14 0)
(-3.3965e-13 -3.35226e-14 0)
(-2.25174e-13 -1.88893e-14 0)
(-1.60306e-13 -1.16363e-14 0)
(-1.19976e-13 -7.65574e-15 0)
(-9.31811e-14 -5.29695e-15 0)
(-7.42775e-13 -3.81336e-15 0)
(7.33665e-13 -1.10813e-14 0)
(8.93387e-14 -1.5277e-14 0)
(1.13636e-13 -2.18496e-14 0)
(1.49073e-13 -3.2711e-14 0)
(2.03288e-13 -5.18975e-14 0)
(2.91025e-13 -8.87942e-14 0)
(4.41132e-13 -1.68029e-13 0)
(6.96819e-13 -3.65076e-13 0)
(9.66035e-13 -9.66035e-13 0)
(5.3749e-13 -3.41075e-12 0)
(-5.3749e-13 -3.41075e-12 0)
(-9.66035e-13 -9.66035e-13 0)
(-6.96819e-13 -3.65076e-13 0)
(-4.41132e-13 -1.68029e-13 0)
(-2.91025e-13 -8.87942e-14 0)
(-2.03288e-13 -5.18975e-14 0)
(-1.49073e-13 -3.2711e-14 0)
(-1.13636e-13 -2.18496e-14 0)
(-8.93387e-14 -1.5277e-14 0)
(-7.33665e-13 -1.10813e-14 0)
(7.16417e-13 -1.73614e-14 0)
(8.24128e-14 -2.35995e-14 0)
(1.02542e-13 -3.31058e-14 0)
(1.30259e-13 -4.82228e-14 0)
(1.69091e-13 -7.34847e-14 0)
(2.23519e-13 -1.18167e-13 0)
(2.95645e-13 -2.02187e-13 0)
(3.68788e-13 -3.68788e-13 0)
(3.65076e-13 -6.96819e-13 0)
(1.64317e-13 -1.16679e-12 0)
(-1.64317e-13 -1.16679e-12 0)
(-3.65076e-13 -6.96819e-13 0)
(-3.68788e-13 -3.68788e-13 0)
(-2.95645e-13 -2.02187e-13 0)
(-2.23519e-13 -1.18167e-13 0)
(-1.69091e-13 -7.34847e-14 0)
(-1.30259e-13 -4.82228e-14 0)
(-1.02542e-13 -3.31058e-14 0)
(-8.24128e-14 -2.35995e-14 0)
(-7.16417e-13 -1.73614e-14 0)
(6.92704e-13 -2.22504e-14 0)
(7.35943e-14 -2.96743e-14 0)
(8.9013e-14 -4.05784e-14 0)
(1.08694e-13 -5.70711e-14 0)
(1.33344e-13 -8.27728e-14 0)
(1.62322e-13 -1.23892e-13 0)
(1.9051e-13 -1.9051e-13 0)
(2.02187e-13 -2.95645e-13 0)
(1.68029e-13 -4.41132e-13 0)
(6.75149e-14 -5.71926e-13 0)
(-6.75149e-14 -5.71926e-13 0)
(-1.68029e-13 -4.41132e-13 0)
(-2.02187e-13 -2.95645e-13 0)
(-1.9051e-13 -1.9051e-13 0)
(-1.62322e-13 -1.23892e-13 0)
(-1.33344e-13 -8.27728e-14 0)
(-1.08694e-13 -5.70711e-14 0)
(-8.9013e-14 -4.05784e-14 0)
(-7.35943e-14 -2.96743e-14 0)
(-6.92704e-13 -2.22504e-14 0)
(6.64492e-13 -2.5616e-14 0)
(6.40849e-14 -3.34163e-14 0)
(7.51449e-14 -4.43998e-14 0)
(8.80641e-14 -6.01166e-14 0)
(1.0227e-13 -8.28611e-14 0)
(1.15781e-13 -1.15781e-13 0)
(1.23892e-13 -1.62322e-13 0)
(1.18167e-13 -2.23519e-13 0)
(8.87942e-14 -2.91025e-13 0)
(3.35226e-14 -3.3965e-13 0)
(-3.35226e-14 -3.3965e-13 0)
(-8.87942e-14 -2.91025e-13 0)
(-1.18167e-13 -2.23519e-13 0)
(-1.23892e-13 -1.62322e-13 0)
(-1.15781e-13 -1.15781e-13 0)
(-1.0227e-13 -8.28611e-14 0)
(-8.80641e-14 -6.01166e-14 0)
(-7.51449e-14 -4.43998e-14 0)
(-6.40849e-14 -3.34163e-14 0)
(-6.64492e-13 -2.5616e-14 0)
(6.33672e-13 -2.7553e-14 0)
(5.48105e-14 -3.51133e-14 0)
(6.23127e-14 -4.53012e-14 0)
(7.02327e-14 -5.909e-14 0)
(7.76793e-14 -7.76793e-14 0)
(8.28611e-14 -1.0227e-13 0)
(8.27728e-14 -1.33344e-13 0)
(7.34847e-14 -1.69091e-13 0)
(5.18975e-14 -2.03288e-13 0)
(1.88893e-14 -2.25174e-13 0)
(-1.88893e-14 -2.25174e-13 0)
(-5.18975e-14 -2.03288e-13 0)
(-7.34847e-14 -1.69091e-13 0)
(-8.27728e-14 -1.33344e-13 0)
(-8.28611e-14 -1.0227e-13 0)
(-7.76793e-14 -7.76793e-14 0)
(-7.02327e-14 -5.909e-14 0)
(-6.23127e-14 -4.53012e-14 0)
(-5.48105e-14 -3.51133e-14 0)
(-6.33672e-13 -2.7553e-14 0)
(6.01826e-13 -2.82953e-14 0)
(4.63366e-14 -3.5232e-14 0)
(5.11682e-14 -4.41862e-14 0)
(5.5686e-14 -5.5686e-14 0)
(5.909e-14 -7.02327e-14 0)
(6.01166e-14 -8.80641e-14 0)
(5.70711e-14 -1.08694e-13 0)
(4.82228e-14 -1.30259e-13 0)
(3.2711e-14 -1.49073e-13 0)
(1.16363e-14 -1.60306e-13 0)
(-1.16363e-14 -1.60306e-13 0)
(-3.2711e-14 -1.49073e-13 0)
(-4.82228e-14 -1.30259e-13 0)
(-5.70711e-14 -1.08694e-13 0)
(-6.01166e-14 -8.80641e-14 0)
(-5.909e-14 -7.02327e-14 0)
(-5.5686e-14 -5.5686e-14 0)
(-5.11682e-14 -4.41862e-14 0)
(-4.63366e-14 -3.5232e-14 0)
(-6.01826e-13 -2.82953e-14 0)
(5.70145e-13 -2.81275e-14 0)
(3.89195e-14 -3.42577e-14 0)
(4.18586e-14 -4.18586e-14 0)
(4.41862e-14 -5.11682e-14 0)
(4.53012e-14 -6.23127e-14 0)
(4.43998e-14 -7.51449e-14 0)
(4.05784e-14 -8.9013e-14 0)
(3.31058e-14 -1.02542e-13 0)
(2.18496e-14 -1.13636e-13 0)
(7.65574e-15 -1.19976e-13 0)
(-7.65574e-15 -1.19976e-13 0)
(-2.18496e-14 -1.13636e-13 0)
(-3.31058e-14 -1.02542e-13 0)
(-4.05784e-14 -8.9013e-14 0)
(-4.43998e-14 -7.51449e-14 0)
(-4.53012e-14 -6.23127e-14 0)
(-4.41862e-14 -5.11682e-14 0)
(-4.18586e-14 -4.18586e-14 0)
(-3.89195e-14 -3.42577e-14 0)
(-5.70145e-13 -2.81275e-14 0)
(5.39441e-13 -2.7323e-14 0)
(3.26055e-14 -3.26055e-14 0)
(3.42577e-14 -3.89195e-14 0)
(3.5232e-14 -4.63366e-14 0)
(3.51133e-14 -5.48105e-14 0)
(3.34163e-14 -6.40849e-14 0)
(2.96743e-14 -7.35943e-14 0)
(2.35995e-14 -8.24128e-14 0)
(1.5277e-14 -8.93387e-14 0)
(5.29695e-15 -9.31811e-14 0)
(-5.29695e-15 -9.31811e-14 0)
(-1.5277e-14 -8.93387e-14 0)
(-2.35995e-14 -8.24128e-14 0)
(-2.96743e-14 -7.35943e-14 0)
(-3.34163e-14 -6.40849e-14 0)
(-3.51133e-14 -5.48105e-14 0)
(-3.5232e-14 -4.63366e-14 0)
(-3.42577e-14 -3.89195e-14 0)
(-3.26055e-14 -3.26055e-14 0)
(-5.39441e-13 -2.7323e-14 0)
(5.10216e-13 -5.10216e-13 0)
(2.7323e-14 -5.39441e-13 0)
(2.81275e-14 -5.70145e-13 0)
(2.82953e-14 -6.01826e-13 0)
(2.7553e-14 -6.33672e-13 0)
(2.5616e-14 -6.64492e-13 0)
(2.22504e-14 -6.92704e-13 0)
(1.73614e-14 -7.16417e-13 0)
(1.10813e-14 -7.33665e-13 0)
(3.81336e-15 -7.42775e-13 0)
(-3.81336e-15 -7.42775e-13 0)
(-1.10813e-14 -7.33665e-13 0)
(-1.73614e-14 -7.16417e-13 0)
(-2.22504e-14 -6.92704e-13 0)
(-2.5616e-14 -6.64492e-13 0)
(-2.7553e-14 -6.33672e-13 0)
(-2.82953e-14 -6.01826e-13 0)
(-2.81275e-14 -5.70145e-13 0)
(-2.7323e-14 -5.39441e-13 0)
(-5.10216e-13 -5.10216e-13 0)
)
;

boundaryField
{
    movingWall
    {
        type            fixedValue;
        value           uniform (1 0 0);
    }
    fixedWalls
    {
        type            fixedValue;
        value           uniform (0 0 0);
    }
    frontAndBack
    {
        type            empty;
    }
}


// ************************************************************************* //
