/*--------------------------------*- C++ -*----------------------------------*\
  =========                 |
  \\      /  F ield         | OpenFOAM: The Open Source CFD Toolbox
   \\    /   O peration     | Website:  https://openfoam.org
    \\  /    A nd           | Version:  dev
     \\/     M anipulation  |
\*---------------------------------------------------------------------------*/
FoamFile
{
    format      ascii;
    class       volVectorField;
    location    "0.5";
    object      U;
}
// * * * * * * * * * * * * * * * * * * * * * * * * * * * * * * * * * * * * * //

dimensions      [0 1 -1 0 0 0 0];

internalField   nonuniform List<vector> 
400
(
(6.7806e-16 6.7806e-16 0)
(1.38291e-15 8.01102e-16 0)
(1.42363e-15 9.45425e-16 0)
(1.43212e-15 1.11137e-15 0)
(1.39455e-15 1.29651e-15 0)
(1.29651e-15 1.49403e-15 0)
(1.12617e-15 1.69131e-15 0)
(8.78721e-16 1.86978e-15 0)
(5.60863e-16 2.00704e-15 0)
(1.93007e-16 2.08213e-15 0)
(-1.93007e-16 2.08213e-15 0)
(-5.60863e-16 2.00704e-15 0)
(-8.78721e-16 1.86978e-15 0)
(-1.12617e-15 1.69131e-15 0)
(-1.29651e-15 1.49403e-15 0)
(-1.39455e-15 1.29651e-15 0)
(-1.43212e-15 1.11137e-15 0)
(-1.42363e-15 9.45425e-16 0)
(-1.38291e-15 8.01102e-16 0)
(-6.7806e-16 6.7806e-16 0)
(8.01102e-16 1.38291e-15 0)
(1.65028e-15 1.65028e-15 0)
(1.7339e-15 1.96985e-15 0)
(1.78321e-15 2.34526e-15 0)
(1.77721e-15 2.77415e-15 0)
(1.69131e-15 3.24356e-15 0)
(1.50192e-15 3.72486e-15 0)
(1.19445e-15 4.1712e-15 0)
(7.7322e-16 4.52174e-15 0)
(2.68097e-16 4.71622e-15 0)
(-2.68097e-16 4.71622e-15 0)
(-7.7322e-16 4.52174e-15 0)
(-1.19445e-15 4.1712e-15 0)
(-1.50192e-15 3.72486e-15 0)
(-1.69131e-15 3.24356e-15 0)
(-1.77721e-15 2.77415e-15 0)
(-1.78321e-15 2.34526e-15 0)
(-1.7339e-15 1.96985e-15 0)
(-1.65028e-15 1.65028e-15 0)
(-8.01102e-16 1.38291e-15 0)
(9.45425e-16 1.42363e-15 0)
(1.96985e-15 1.7339e-15 0)
(2.11861e-15 2.11861e-15 0)
(2.23642e-15 2.5898e-15 0)
(2.29285e-15 3.15386e-15 0)
(2.24723e-15 3.80334e-15 0)
(2.05381e-15 4.50526e-15 0)
(1.6756e-15 5.18999e-15 0)
(1.10588e-15 5.75153e-15 0)
(3.87484e-16 6.07239e-15 0)
(-3.87484e-16 6.07239e-15 0)
(-1.10588e-15 5.75153e-15 0)
(-1.6756e-15 5.18999e-15 0)
(-2.05381e-15 4.50526e-15 0)
(-2.24723e-15 3.80334e-15 0)
(-2.29285e-15 3.15386e-15 0)
(-2.23642e-15 2.5898e-15 0)
(-2.11861e-15 2.11861e-15 0)
(-1.96985e-15 1.7339e-15 0)
(-9.45425e-16 1.42363e-15 0)
(1.11137e-15 1.43212e-15 0)
(2.34526e-15 1.78321e-15 0)
(2.5898e-15 2.23642e-15 0)
(2.81846e-15 2.81846e-15 0)
(2.99075e-15 3.55472e-15 0)
(3.04271e-15 4.45723e-15 0)
(2.88857e-15 5.50138e-15 0)
(2.44072e-15 6.59284e-15 0)
(1.65562e-15 7.5451e-15 0)
(5.88956e-16 8.11367e-15 0)
(-5.88956e-16 8.11367e-15 0)
(-1.65562e-15 7.5451e-15 0)
(-2.44072e-15 6.59284e-15 0)
(-2.88857e-15 5.50138e-15 0)
(-3.04271e-15 4.45723e-15 0)
(-2.99075e-15 3.55472e-15 0)
(-2.81846e-15 2.81846e-15 0)
(-2.5898e-15 2.23642e-15 0)
(-2.34526e-15 1.78321e-15 0)
(-1.11137e-15 1.43212e-15 0)
(1.29651e-15 1.39455e-15 0)
(2.77415e-15 1.77721e-15 0)
(3.15386e-15 2.29285e-15 0)
(3.55472e-15 2.99075e-15 0)
(3.93162e-15 3.93162e-15 0)
(4.19389e-15 5.17625e-15 0)
(4.18942e-15 6.74899e-15 0)
(3.71932e-15 8.55827e-15 0)
(2.62671e-15 1.02891e-14 0)
(9.56051e-16 1.13968e-14 0)
(-9.56051e-16 1.13968e-14 0)
(-2.62671e-15 1.02891e-14 0)
(-3.71932e-15 8.55827e-15 0)
(-4.18942e-15 6.74899e-15 0)
(-4.19389e-15 5.17625e-15 0)
(-3.93162e-15 3.93162e-15 0)
(-3.55472e-15 2.99075e-15 0)
(-3.15386e-15 2.29285e-15 0)
(-2.77415e-15 1.77721e-15 0)
(-1.29651e-15 1.39455e-15 0)
(1.49403e-15 1.29651e-15 0)
(3.24356e-15 1.69131e-15 0)
(3.80334e-15 2.24723e-15 0)
(4.45723e-15 3.04271e-15 0)
(5.17625e-15 4.19389e-15 0)
(5.86008e-15 5.86008e-15 0)
(6.27059e-15 8.2157e-15 0)
(5.98083e-15 1.13131e-14 0)
(4.49418e-15 1.47298e-14 0)
(1.69669e-15 1.71909e-14 0)
(-1.69669e-15 1.71909e-14 0)
(-4.49418e-15 1.47298e-14 0)
(-5.98083e-15 1.13131e-14 0)
(-6.27059e-15 8.2157e-15 0)
(-5.86008e-15 5.86008e-15 0)
(-5.17625e-15 4.19389e-15 0)
(-4.45723e-15 3.04271e-15 0)
(-3.80334e-15 2.24723e-15 0)
(-3.24356e-15 1.69131e-15 0)
(-1.49403e-15 1.29651e-15 0)
(1.69131e-15 1.12617e-15 0)
(3.72486e-15 1.50192e-15 0)
(4.50526e-15 2.05381e-15 0)
(5.50138e-15 2.88857e-15 0)
(6.74899e-15 4.18942e-15 0)
(8.2157e-15 6.27059e-15 0)
(9.6424e-15 9.6424e-15 0)
(1.02334e-14 1.49636e-14 0)
(8.50453e-15 2.23272e-14 0)
(3.41716e-15 2.89472e-14 0)
(-3.41716e-15 2.89472e-14 0)
(-8.50453e-15 2.23272e-14 0)
(-1.02334e-14 1.49636e-14 0)
(-9.6424e-15 9.6424e-15 0)
(-8.2157e-15 6.27059e-15 0)
(-6.74899e-15 4.18942e-15 0)
(-5.50138e-15 2.88857e-15 0)
(-4.50526e-15 2.05381e-15 0)
(-3.72486e-15 1.50192e-15 0)
(-1.69131e-15 1.12617e-15 0)
(1.86978e-15 8.78721e-16 0)
(4.1712e-15 1.19445e-15 0)
(5.18999e-15 1.6756e-15 0)
(6.59284e-15 2.44072e-15 0)
(8.55827e-15 3.71932e-15 0)
(1.13131e-14 5.98083e-15 0)
(1.49636e-14 1.02334e-14 0)
(1.86656e-14 1.86656e-14 0)
(1.84777e-14 3.52684e-14 0)
(8.31664e-15 5.90555e-14 0)
(-8.31664e-15 5.90555e-14 0)
(-1.84777e-14 3.52684e-14 0)
(-1.86656e-14 1.86656e-14 0)
(-1.49636e-14 1.02334e-14 0)
(-1.13131e-14 5.98083e-15 0)
(-8.55827e-15 3.71932e-15 0)
(-6.59284e-15 2.44072e-15 0)
(-5.18999e-15 1.6756e-15 0)
(-4.1712e-15 1.19445e-15 0)
(-1.86978e-15 8.78721e-16 0)
(2.00704e-15 5.60863e-16 0)
(4.52174e-15 7.7322e-16 0)
(5.75153e-15 1.10588e-15 0)
(7.5451e-15 1.65562e-15 0)
(1.02891e-14 2.62671e-15 0)
(1.47298e-14 4.49418e-15 0)
(2.23272e-14 8.50453e-15 0)
(3.52684e-14 1.84777e-14 0)
(4.88944e-14 4.88944e-14 0)
(2.72042e-14 1.7263e-13 0)
(-2.72042e-14 1.7263e-13 0)
(-4.88944e-14 4.88944e-14 0)
(-3.52684e-14 1.84777e-14 0)
(-2.23272e-14 8.50453e-15 0)
(-1.47298e-14 4.49418e-15 0)
(-1.02891e-14 2.62671e-15 0)
(-7.5451e-15 1.65562e-15 0)
(-5.75153e-15 1.10588e-15 0)
(-4.52174e-15 7.7322e-16 0)
(-2.00704e-15 5.60863e-16 0)
(2.08213e-15 1.93007e-16 0)
(4.71622e-15 2.68097e-16 0)
(6.07239e-15 3.87484e-16 0)
(8.11367e-15 5.88956e-16 0)
(1.13968e-14 9.56051e-16 0)
(1.71909e-14 1.69669e-15 0)
(2.89472e-14 3.41716e-15 0)
(5.90555e-14 8.31664e-15 0)
(1.7263e-13 2.72042e-14 0)
(1.32052e-13 1.32052e-13 0)
(-1.32052e-13 1.32052e-13 0)
(-1.7263e-13 2.72042e-14 0)
(-5.90555e-14 8.31664e-15 0)
(-2.89472e-14 3.41716e-15 0)
(-1.71909e-14 1.69669e-15 0)
(-1.13968e-14 9.56051e-16 0)
(-8.11367e-15 5.88956e-16 0)
(-6.07239e-15 3.87484e-16 0)
(-4.71622e-15 2.68097e-16 0)
(-2.08213e-15 1.93007e-16 0)
(2.08213e-15 -1.93007e-16 0)
(4.71622e-15 -2.68097e-16 0)
(6.07239e-15 -3.87484e-16 0)
(8.11367e-15 -5.88956e-16 0)
(1.13968e-14 -9.56051e-16 0)
(1.71909e-14 -1.69669e-15 0)
(2.89472e-14 -3.41716e-15 0)
(5.90555e-14 -8.31664e-15 0)
(1.7263e-13 -2.72042e-14 0)
(1.32052e-13 -1.32052e-13 0)
(-1.32052e-13 -1.32052e-13 0)
(-1.7263e-13 -2.72042e-14 0)
(-5.90555e-14 -8.31664e-15 0)
(-2.89472e-14 -3.41716e-15 0)
(-1.71909e-14 -1.69669e-15 0)
(-1.13968e-14 -9.56051e-16 0)
(-8.11367e-15 -5.88956e-16 0)
(-6.07239e-15 -3.87484e-16 0)
(-4.71622e-15 -2.68097e-16 0)
(-2.08213e-15 -1.93007e-16 0)
(2.00704e-15 -5.60863e-16 0)
(4.52174e-15 -7.7322e-16 0)
(5.75153e-15 -1.10588e-15 0)
(7.5451e-15 -1.65562e-15 0)
(1.02891e-14 -2.62671e-15 0)
(1.47298e-14 -4.49418e-15 0)
(2.23272e-14 -8.50453e-15 0)
(3.52684e-14 -1.84777e-14 0)
(4.88944e-14 -4.88944e-14 0)
(2.72042e-14 -1.7263e-13 0)
(-2.72042e-14 -1.7263e-13 0)
(-4.88944e-14 -4.88944e-14 0)
(-3.52684e-14 -1.84777e-14 0)
(-2.23272e-14 -8.50453e-15 0)
(-1.47298e-14 -4.49418e-15 0)
(-1.02891e-14 -2.62671e-15 0)
(-7.5451e-15 -1.65562e-15 0)
(-5.75153e-15 -1.10588e-15 0)
(-4.52174e-15 -7.7322e-16 0)
(-2.00704e-15 -5.60863e-16 0)
(1.86978e-15 -8.78721e-16 0)
(4.1712e-15 -1.19445e-15 0)
(5.18999e-15 -1.6756e-15 0)
(6.59284e-15 -2.44072e-15 0)
(8.55827e-15 -3.71932e-15 0)
(1.13131e-14 -5.98083e-15 0)
(1.49636e-14 -1.02334e-14 0)
(1.86656e-14 -1.86656e-14 0)
(1.84777e-14 -3.52684e-14 0)
(8.31664e-15 -5.90555e-14 0)
(-8.31664e-15 -5.90555e-14 0)
(-1.84777e-14 -3.52684e-14 0)
(-1.86656e-14 -1.86656e-14 0)
(-1.49636e-14 -1.02334e-14 0)
(-1.13131e-14 -5.98083e-15 0)
(-8.55827e-15 -3.71932e-15 0)
(-6.59284e-15 -2.44072e-15 0)
(-5.18999e-15 -1.6756e-15 0)
(-4.1712e-15 -1.19445e-15 0)
(-1.86978e-15 -8.78721e-16 0)
(1.69131e-15 -1.12617e-15 0)
(3.72486e-15 -1.50192e-15 0)
(4.50526e-15 -2.05381e-15 0)
(5.50138e-15 -2.88857e-15 0)
(6.74899e-15 -4.18942e-15 0)
(8.2157e-15 -6.27059e-15 0)
(9.6424e-15 -9.6424e-15 0)
(1.02334e-14 -1.49636e-14 0)
(8.50453e-15 -2.23272e-14 0)
(3.41716e-15 -2.89472e-14 0)
(-3.41716e-15 -2.89472e-14 0)
(-8.50453e-15 -2.23272e-14 0)
(-1.02334e-14 -1.49636e-14 0)
(-9.6424e-15 -9.6424e-15 0)
(-8.2157e-15 -6.27059e-15 0)
(-6.74899e-15 -4.18942e-15 0)
(-5.50138e-15 -2.88857e-15 0)
(-4.50526e-15 -2.05381e-15 0)
(-3.72486e-15 -1.50192e-15 0)
(-1.69131e-15 -1.12617e-15 0)
(1.49403e-15 -1.29651e-15 0)
(3.24356e-15 -1.69131e-15 0)
(3.80334e-15 -2.24723e-15 0)
(4.45723e-15 -3.04271e-15 0)
(5.17625e-15 -4.19389e-15 0)
(5.86008e-15 -5.86008e-15 0)
(6.27059e-15 -8.2157e-15 0)
(5.98083e-15 -1.13131e-14 0)
(4.49418e-15 -1.47298e-14 0)
(1.69669e-15 -1.71909e-14 0)
(-1.69669e-15 -1.71909e-14 0)
(-4.49418e-15 -1.47298e-14 0)
(-5.98083e-15 -1.13131e-14 0)
(-6.27059e-15 -8.2157e-15 0)
(-5.86008e-15 -5.86008e-15 0)
(-5.17625e-15 -4.19389e-15 0)
(-4.45723e-15 -3.04271e-15 0)
(-3.80334e-15 -2.24723e-15 0)
(-3.24356e-15 -1.69131e-15 0)
(-1.49403e-15 -1.29651e-15 0)
(1.29651e-15 -1.39455e-15 0)
(2.77415e-15 -1.77721e-15 0)
(3.15386e-15 -2.29285e-15 0)
(3.55472e-15 -2.99075e-15 0)
(3.93162e-15 -3.93162e-15 0)
(4.19389e-15 -5.17625e-15 0)
(4.18942e-15 -6.74899e-15 0)
(3.71932e-15 -8.55827e-15 0)
(2.62671e-15 -1.02891e-14 0)
(9.56051e-16 -1.13968e-14 0)
(-9.56051e-16 -1.13968e-14 0)
(-2.62671e-15 -1.02891e-14 0)
(-3.71932e-15 -8.55827e-15 0)
(-4.18942e-15 -6.74899e-15 0)
(-4.19389e-15 -5.17625e-15 0)
(-3.93162e-15 -3.93162e-15 0)
(-3.55472e-15 -2.99075e-15 0)
(-3.15386e-15 -2.29285e-15 0)
(-2.77415e-15 -1.77721e-15 0)
(-1.29651e-15 -1.39455e-15 0)
(1.11137e-15 -1.43212e-15 0)
(2.34526e-15 -1.78321e-15 0)
(2.5898e-15 -2.23642e-15 0)
(2.81846e-15 -2.81846e-15 0)
(2.99075e-15 -3.55472e-15 0)
(3.04271e-15 -4.45723e-15 0)
(2.88857e-15 -5.50138e-15 0)
(2.44072e-15 -6.59284e-15 0)
(1.65562e-15 -7.5451e-15 0)
(5.88956e-16 -8.11367e-15 0)
(-5.88956e-16 -8.11367e-15 0)
(-1.65562e-15 -7.5451e-15 0)
(-2.44072e-15 -6.59284e-15 0)
(-2.88857e-15 -5.50138e-15 0)
(-3.04271e-15 -4.45723e-15 0)
(-2.99075e-15 -3.55472e-15 0)
(-2.81846e-15 -2.81846e-15 0)
(-2.5898e-15 -2.23642e-15 0)
(-2.34526e-15 -1.78321e-15 0)
(-1.11137e-15 -1.43212e-15 0)
(9.45425e-16 -1.42363e-15 0)
(1.96985e-15 -1.7339e-15 0)
(2.11861e-15 -2.11861e-15 0)
(2.23642e-15 -2.5898e-15 0)
(2.29285e-15 -3.15386e-15 0)
(2.24723e-15 -3.80334e-15 0)
(2.05381e-15 -4.50526e-15 0)
(1.6756e-15 -5.18999e-15 0)
(1.10588e-15 -5.75153e-15 0)
(3.87484e-16 -6.07239e-15 0)
(-3.87484e-16 -6.07239e-15 0)
(-1.10588e-15 -5.75153e-15 0)
(-1.6756e-15 -5.18999e-15 0)
(-2.05381e-15 -4.50526e-15 0)
(-2.24723e-15 -3.80334e-15 0)
(-2.29285e-15 -3.15386e-15 0)
(-2.23642e-15 -2.5898e-15 0)
(-2.11861e-15 -2.11861e-15 0)
(-1.96985e-15 -1.7339e-15 0)
(-9.45425e-16 -1.42363e-15 0)
(8.01102e-16 -1.38291e-15 0)
(1.65028e-15 -1.65028e-15 0)
(1.7339e-15 -1.96985e-15 0)
(1.78321e-15 -2.34526e-15 0)
(1.77721e-15 -2.77415e-15 0)
(1.69131e-15 -3.24356e-15 0)
(1.50192e-15 -3.72486e-15 0)
(1.19445e-15 -4.1712e-15 0)
(7.7322e-16 -4.52174e-15 0)
(2.68097e-16 -4.71622e-15 0)
(-2.68097e-16 -4.71622e-15 0)
(-7.7322e-16 -4.52174e-15 0)
(-1.19445e-15 -4.1712e-15 0)
(-1.50192e-15 -3.72486e-15 0)
(-1.69131e-15 -3.24356e-15 0)
(-1.77721e-15 -2.77415e-15 0)
(-1.78321e-15 -2.34526e-15 0)
(-1.7339e-15 -1.96985e-15 0)
(-1.65028e-15 -1.65028e-15 0)
(-8.01102e-16 -1.38291e-15 0)
(6.7806e-16 -6.7806e-16 0)
(1.38291e-15 -8.01102e-16 0)
(1.42363e-15 -9.45425e-16 0)
(1.43212e-15 -1.11137e-15 0)
(1.39455e-15 -1.29651e-15 0)
(1.29651e-15 -1.49403e-15 0)
(1.12617e-15 -1.69131e-15 0)
(8.78721e-16 -1.86978e-15 0)
(5.60863e-16 -2.00704e-15 0)
(1.93007e-16 -2.08213e-15 0)
(-1.93007e-16 -2.08213e-15 0)
(-5.60863e-16 -2.00704e-15 0)
(-8.78721e-16 -1.86978e-15 0)
(-1.12617e-15 -1.69131e-15 0)
(-1.29651e-15 -1.49403e-15 0)
(-1.39455e-15 -1.29651e-15 0)
(-1.43212e-15 -1.11137e-15 0)
(-1.42363e-15 -9.45425e-16 0)
(-1.38291e-15 -8.01102e-16 0)
(-6.7806e-16 -6.7806e-16 0)
)
;

boundaryField
{
    movingWall
    {
        type            fixedValue;
        value           uniform (1 0 0);
    }
    fixedWalls
    {
        type            fixedValue;
        value           uniform (0 0 0);
    }
    frontAndBack
    {
        type            empty;
    }
}


// ************************************************************************* //
