/*--------------------------------*- C++ -*----------------------------------*\
  =========                 |
  \\      /  F ield         | OpenFOAM: The Open Source CFD Toolbox
   \\    /   O peration     | Website:  https://openfoam.org
    \\  /    A nd           | Version:  dev
     \\/     M anipulation  |
\*---------------------------------------------------------------------------*/
FoamFile
{
    format      ascii;
    class       volScalarField;
    location    "30";
    object      h;
}
// * * * * * * * * * * * * * * * * * * * * * * * * * * * * * * * * * * * * * //

dimensions      [0 1 0 0 0 0 0];

internalField   nonuniform List<scalar> 
10000
(
0.0111413
0.028429
0.034415
0.030526
0.0233534
0.0185731
0.0170937
0.0158298
0.0110718
0.00164823
-0.0096419
-0.0174426
-0.0179133
-0.0121042
-0.0049103
-0.000622384
7.25747e-05
-0.000905126
-0.00178278
-0.00222216
-0.00270791
-0.00354248
-0.00436926
-0.00431643
-0.0026046
0.00089491
0.00555161
0.0102199
0.0136581
0.0149431
0.0136946
0.0100933
0.0047533
-0.00149105
-0.00779147
-0.0134369
-0.0179422
-0.0210633
-0.0227711
-0.0231979
-0.0225748
-0.0211802
-0.0192936
-0.0171707
-0.0150262
-0.0130302
-0.0113093
-0.00995287
-0.00901979
-0.00854515
-0.00854518
-0.00901989
-0.00995304
-0.0113096
-0.0130306
-0.0150267
-0.0171714
-0.0192945
-0.0211813
-0.0225761
-0.0231993
-0.0227726
-0.0210648
-0.0179435
-0.0134379
-0.007792
-0.00149101
0.00475395
0.0100945
0.0136962
0.0149448
0.0136595
0.0102209
0.00555195
0.00089464
-0.00260528
-0.00431722
-0.0043699
-0.00354289
-0.0027082
-0.00222246
-0.00178308
-0.00090516
7.31265e-05
-0.000621338
-0.00490947
-0.0121044
-0.0179146
-0.0174441
-0.00964258
0.00164868
0.0110728
0.0158306
0.0170936
0.0185726
0.0233533
0.0305272
0.0344175
0.0284315
0.0111424
0.028429
0.0734831
0.0917679
0.0861294
0.0708946
0.0583985
0.0511863
0.0437253
0.0289509
0.00475902
-0.0227621
-0.04253
-0.0470154
-0.038145
-0.0243401
-0.0127628
-0.00539699
-0.00112098
0.00103413
0.00119305
-0.000479716
-0.00325009
-0.00579501
-0.00661631
-0.00481811
-0.000514653
0.0053263
0.011256
0.015847
0.0181115
0.0176571
0.0146677
0.00975221
0.00371965
-0.00260778
-0.00853358
-0.0135692
-0.0174389
-0.0200658
-0.0215202
-0.0219693
-0.0216335
-0.0207426
-0.0195186
-0.018152
-0.0168024
-0.0155922
-0.0146133
-0.0139281
-0.0135763
-0.0135763
-0.0139282
-0.0146135
-0.0155925
-0.0168029
-0.0181525
-0.0195194
-0.0207435
-0.0216345
-0.0219705
-0.0215215
-0.0200671
-0.0174402
-0.0135703
-0.00853431
-0.00260806
0.00371992
0.00975306
0.0146691
0.0176588
0.0181133
0.0158486
0.011257
0.00532658
-0.000515146
-0.00481916
-0.00661757
-0.00579606
-0.00325069
-0.000479855
0.00119321
0.00103443
-0.00112053
-0.00539624
-0.0127619
-0.0243396
-0.0381461
-0.0470181
-0.0425328
-0.0227633
0.00475999
0.0289529
0.0437268
0.0511865
0.058398
0.0708951
0.0861325
0.0917737
0.0734891
0.0284315
0.034415
0.0917679
0.122408
0.126834
0.115936
0.100394
0.0843914
0.0656384
0.0397975
0.00671101
-0.0268609
-0.0517632
-0.0632973
-0.0624869
-0.0524026
-0.0361294
-0.0177941
-0.0024613
0.00655316
0.00945551
0.00861526
0.00637794
0.00414503
0.0021993
0.000102919
-0.0024273
-0.00515096
-0.00743543
-0.00848144
-0.00769366
-0.0049203
-0.000446841
0.00509977
0.0109333
0.0163141
0.0206597
0.0236215
0.0250915
0.0251467
0.0240123
0.0219755
0.0193516
0.0164328
0.0134709
0.0106672
0.00816917
0.00608243
0.00447271
0.00338216
0.00283186
0.00283188
0.0033822
0.00447279
0.00608257
0.00816939
0.0106675
0.0134714
0.0164335
0.0193525
0.0219766
0.0240136
0.0251481
0.0250929
0.0236229
0.0206609
0.0163149
0.0109337
0.00509965
-0.000447462
-0.00492131
-0.00769485
-0.0084826
-0.00743634
-0.00515152
-0.00242755
0.000102833
0.00219923
0.00414495
0.00637804
0.00861582
0.00945668
0.00655474
-0.00246003
-0.0177939
-0.0361306
-0.0524046
-0.0624893
-0.0632997
-0.0517651
-0.0268617
0.00671179
0.0397993
0.0656401
0.0843926
0.100396
0.115939
0.126838
0.122414
0.0917737
0.0344174
0.030526
0.0861294
0.126834
0.147343
0.148303
0.135175
0.113261
0.0836677
0.0462843
0.00580558
-0.0293424
-0.0540611
-0.0683986
-0.0726838
-0.0658599
-0.049617
-0.0301848
-0.0139196
-0.00280945
0.00456829
0.00968895
0.0130697
0.0145759
0.0135748
0.00983501
0.0040884
-0.00244062
-0.00836101
-0.0124524
-0.0140602
-0.0130752
-0.00982615
-0.00496097
0.000784003
0.00672073
0.0122709
0.0170583
0.0208603
0.0236126
0.0253703
0.0262486
0.0264264
0.0260739
0.0253785
0.0244927
0.0235596
0.0226865
0.0219615
0.0214449
0.0211771
0.0211772
0.021445
0.0219617
0.0226868
0.02356
0.0244933
0.0253792
0.0260747
0.0264273
0.0262496
0.0253714
0.0236137
0.0208614
0.0170592
0.0122715
0.00672101
0.000783825
-0.00496165
-0.00982731
-0.0130768
-0.0140619
-0.0124541
-0.00836226
-0.00244125
0.00408849
0.00983572
0.0135759
0.014577
0.0130705
0.00968958
0.00456884
-0.0028088
-0.013919
-0.0301849
-0.0496186
-0.0658625
-0.0726863
-0.0684005
-0.0540626
-0.0293435
0.00580538
0.0462856
0.0836701
0.113264
0.135178
0.148307
0.147348
0.126838
0.0861325
0.0305272
0.0233534
0.0708946
0.115936
0.148303
0.160356
0.152776
0.12931
0.0922656
0.0468479
0.0035287
-0.0292762
-0.0506865
-0.0626392
-0.0651887
-0.0594283
-0.0500074
-0.0411345
-0.0325248
-0.0218992
-0.00969722
0.00139023
0.00957837
0.0143088
0.0158753
0.0156116
0.014683
0.0134394
0.0118943
0.00974708
0.00668684
0.00276458
-0.00172576
-0.00631167
-0.0104143
-0.0135857
-0.0155293
-0.016118
-0.0154516
-0.0136968
-0.0111473
-0.00808251
-0.00478052
-0.00148317
0.00163777
0.0044348
0.00683696
0.00877909
0.0102482
0.0112255
0.0117154
0.0117154
0.0112255
0.0102483
0.0087791
0.00683694
0.00443472
0.00163759
-0.00148348
-0.00478099
-0.00808315
-0.0111481
-0.0136978
-0.0154527
-0.0161192
-0.0155305
-0.0135867
-0.0104151
-0.00631211
-0.00172586
0.00276477
0.00668723
0.00974754
0.0118947
0.0134397
0.0146834
0.0156122
0.0158761
0.0143099
0.00957925
0.00139053
-0.00969786
-0.0219007
-0.0325263
-0.0411354
-0.0500076
-0.0594287
-0.0651895
-0.0626402
-0.0506879
-0.0292781
0.00352719
0.0468485
0.0922687
0.129315
0.15278
0.160361
0.148307
0.115939
0.0708951
0.0233533
0.0185731
0.0583985
0.100394
0.135175
0.152776
0.148425
0.122415
0.0817131
0.0396357
0.00637351
-0.0181832
-0.0374803
-0.0500677
-0.053862
-0.05221
-0.0497813
-0.0462665
-0.0385837
-0.0273186
-0.0165084
-0.00814934
-0.00169818
0.00329259
0.00770077
0.0124042
0.0169033
0.0205026
0.0227094
0.022954
0.0211993
0.0177607
0.0130238
0.00756236
0.00192601
-0.00349893
-0.00832107
-0.012361
-0.0155153
-0.017739
-0.0191444
-0.0197784
-0.0198364
-0.0194213
-0.018717
-0.0178415
-0.0169282
-0.016077
-0.0153676
-0.0148637
-0.0146009
-0.014601
-0.0148638
-0.0153678
-0.0160773
-0.0169286
-0.017842
-0.0187176
-0.019422
-0.0198372
-0.0197793
-0.0191453
-0.01774
-0.0155163
-0.0123619
-0.00832181
-0.00349944
0.00192581
0.00756251
0.0130244
0.0177616
0.0212005
0.0229553
0.0227106
0.0205036
0.0169039
0.0124044
0.00770067
0.00329241
-0.00169839
-0.00814969
-0.0165091
-0.02732
-0.0385858
-0.0462681
-0.0497815
-0.0522093
-0.0538615
-0.0500677
-0.0374807
-0.0181841
0.00637198
0.0396348
0.0817147
0.122419
0.14843
0.15278
0.135178
0.100396
0.0583979
0.0185726
0.0170937
0.0511863
0.0843914
0.113261
0.12931
0.122415
0.0927875
0.0566433
0.0308807
0.0149243
-0.00240986
-0.02345
-0.0407793
-0.0499529
-0.0520539
-0.0478253
-0.0375053
-0.0251587
-0.0171178
-0.0145668
-0.0132577
-0.01075
-0.00699451
-0.00168292
0.00399079
0.00852811
0.0120069
0.0144581
0.0160762
0.0174249
0.0185597
0.0194006
0.0199132
0.0198377
0.0190648
0.0176451
0.0155216
0.0129578
0.010036
0.00697926
0.00396451
0.00107217
-0.0015204
-0.00384305
-0.0057746
-0.00738826
-0.00862356
-0.00954817
-0.0101407
-0.0104391
-0.0104391
-0.0101407
-0.00954826
-0.00862367
-0.00738839
-0.00577472
-0.00384315
-0.00152046
0.00107217
0.0039646
0.00697945
0.0100363
0.0129582
0.0155221
0.0176456
0.0190653
0.0198382
0.0199136
0.019401
0.0185601
0.0174253
0.0160766
0.0144585
0.0120074
0.00852845
0.00399082
-0.00168349
-0.00699564
-0.0107514
-0.0132591
-0.0145675
-0.0171176
-0.0251586
-0.0375058
-0.047826
-0.0520541
-0.0499529
-0.0407791
-0.0234492
-0.0024085
0.0149248
0.0308793
0.056642
0.0927889
0.122419
0.129315
0.113264
0.0843926
0.0511865
0.0170936
0.0158298
0.0437253
0.0656384
0.0836677
0.0922656
0.0817131
0.0566433
0.0353316
0.0254323
0.0163456
-0.000578109
-0.020996
-0.0381297
-0.0488506
-0.0499073
-0.0396569
-0.0233682
-0.0108235
-0.00645034
-0.00587257
-0.00540061
-0.00583418
-0.00612951
-0.00519831
-0.00433371
-0.0030527
-0.000799509
0.00173666
0.00478855
0.00826791
0.0117118
0.0151474
0.0184293
0.0212582
0.0237354
0.0256351
0.0268962
0.0276301
0.02763
0.0272057
0.026216
0.0249491
0.0234198
0.0217968
0.0202023
0.0186972
0.0174245
0.0163883
0.0156914
0.0153247
0.0153247
0.0156915
0.0163884
0.0174247
0.0186975
0.0202026
0.0217972
0.0234203
0.0249496
0.0262167
0.0272064
0.0276308
0.0276309
0.026897
0.0256359
0.023736
0.0212587
0.0184297
0.0151476
0.0117118
0.00826777
0.00478822
0.00173621
-0.000800041
-0.00305336
-0.0043344
-0.00519913
-0.00613062
-0.00583533
-0.00540169
-0.00587332
-0.00644985
-0.0108217
-0.0233666
-0.0396566
-0.0499079
-0.0488512
-0.03813
-0.0209957
-0.000576558
0.0163475
0.0254324
0.0353295
0.056642
0.0817146
0.0922687
0.0836701
0.0656401
0.0437268
0.0158305
0.0110718
0.0289509
0.0397975
0.0462843
0.0468479
0.0396357
0.0308807
0.0254323
0.0172873
0.00193602
-0.0144276
-0.0270435
-0.0382762
-0.0470117
-0.0471403
-0.0370987
-0.0225407
-0.00948733
0.00198237
0.0121434
0.0159101
0.0125007
0.00707997
0.000991181
-0.00451536
-0.00669505
-0.00657713
-0.00494387
-0.00179503
0.0015931
0.00485587
0.00801885
0.0106301
0.012777
0.0146688
0.0159587
0.017126
0.0179153
0.0184855
0.0189857
0.0191842
0.0194854
0.0195105
0.0196659
0.0196343
0.0196951
0.0196586
0.0196725
0.0196509
0.0196514
0.0196514
0.0196509
0.0196725
0.0196587
0.0196951
0.0196344
0.019666
0.0195106
0.0194855
0.0191844
0.0189859
0.0184857
0.0179155
0.0171263
0.015959
0.0146691
0.0127773
0.0106304
0.00801908
0.00485593
0.00159296
-0.00179547
-0.00494469
-0.00657824
-0.00669645
-0.00451686
0.000990083
0.00707928
0.0125005
0.0159108
0.0121441
0.00198286
-0.00948623
-0.022539
-0.0370975
-0.0471402
-0.047012
-0.0382764
-0.027044
-0.0144279
0.00193678
0.0172886
0.0254323
0.0308793
0.0396348
0.0468485
0.0462856
0.0397993
0.0289529
0.0110728
0.00164823
0.00475902
0.00671101
0.00580558
0.0035287
0.00637351
0.0149243
0.0163456
0.00193602
-0.0171545
-0.0276987
-0.0331653
-0.0412651
-0.0502018
-0.054338
-0.050487
-0.0383208
-0.0185593
0.00621781
0.0264227
0.0346123
0.0354063
0.031832
0.0232031
0.0144888
0.00746417
0.00110102
-0.00262461
-0.00428396
-0.00492721
-0.0042926
-0.00316558
-0.00217126
-0.000910764
0.000135436
0.00106006
0.0023584
0.00337567
0.00498456
0.00644099
0.00822308
0.0100205
0.0117495
0.0135427
0.015002
0.016464
0.0175011
0.0184334
0.0189673
0.019285
0.019285
0.0189673
0.0184334
0.0175011
0.016464
0.0150019
0.0135427
0.0117494
0.0100204
0.00822287
0.00644071
0.00498426
0.00337532
0.00235807
0.00105972
0.000135139
-0.000911037
-0.00217157
-0.00316589
-0.00429306
-0.00492784
-0.0042847
-0.00262558
0.00109997
0.00746326
0.0144879
0.0232027
0.0318324
0.0354071
0.0346139
0.026425
0.0062193
-0.018559
-0.0383208
-0.0504867
-0.0543377
-0.0502016
-0.0412649
-0.0331654
-0.0276999
-0.0171556
0.00193677
0.0163475
0.0149248
0.00637197
0.00352719
0.00580538
0.00671178
0.00475998
0.00164867
-0.0096419
-0.0227621
-0.0268609
-0.0293424
-0.0292762
-0.0181832
-0.00240986
-0.000578109
-0.0144276
-0.0276987
-0.0335829
-0.0387428
-0.047562
-0.0594153
-0.0700947
-0.0722939
-0.0614888
-0.0373819
-0.00663638
0.0190132
0.0382469
0.0532885
0.0580186
0.0542184
0.0475303
0.0364116
0.0240897
0.0135754
0.00377295
-0.00370268
-0.00841457
-0.0112795
-0.0119826
-0.0106591
-0.00864094
-0.00525723
-0.00176674
0.00171642
0.00535625
0.00800456
0.0108577
0.0125361
0.0143146
0.0152355
0.0161248
0.0165629
0.0169092
0.017084
0.0171798
0.0172236
0.0172236
0.0171798
0.0170842
0.0169093
0.0165632
0.0161251
0.0152358
0.014315
0.0125365
0.0108581
0.00800483
0.00535644
0.00171641
-0.00176694
-0.00525767
-0.00864169
-0.01066
-0.0119838
-0.0112809
-0.0084159
-0.00370402
0.00377185
0.0135746
0.0240893
0.0364118
0.047531
0.0542194
0.0580204
0.0532904
0.0382484
0.019015
-0.00663472
-0.0373816
-0.0614897
-0.0722951
-0.0700955
-0.0594152
-0.0475615
-0.0387424
-0.0335831
-0.0276999
-0.0144279
-0.000576572
-0.00240851
-0.0181841
-0.0292781
-0.0293436
-0.0268617
-0.0227633
-0.00964258
-0.0174426
-0.04253
-0.0517632
-0.0540611
-0.0506865
-0.0374803
-0.02345
-0.020996
-0.0270435
-0.0331653
-0.0387428
-0.045277
-0.0546633
-0.0687698
-0.082522
-0.0889652
-0.0841307
-0.0653414
-0.0383465
-0.00939654
0.0224396
0.0486471
0.0627313
0.0715446
0.073293
0.066876
0.0586357
0.0476337
0.0352141
0.0245778
0.015143
0.00740706
0.00235753
-0.00134369
-0.00386419
-0.00473767
-0.00611471
-0.00613678
-0.00681735
-0.00705997
-0.007218
-0.00775412
-0.00758482
-0.00813626
-0.00783746
-0.00821798
-0.00794078
-0.00813113
-0.00797014
-0.00802371
-0.00802373
-0.00797021
-0.00813124
-0.00794093
-0.00821818
-0.00783766
-0.0081365
-0.00758503
-0.00775436
-0.00721819
-0.00706016
-0.00681755
-0.00613696
-0.006115
-0.00473798
-0.0038647
-0.00134431
0.00235679
0.00740617
0.0151422
0.0245772
0.0352137
0.0476339
0.0586364
0.066877
0.0732948
0.0715463
0.062733
0.0486491
0.0224408
-0.00939626
-0.0383462
-0.0653415
-0.0841316
-0.0889664
-0.0825232
-0.0687702
-0.0546629
-0.0452763
-0.0387424
-0.0331654
-0.027044
-0.0209957
-0.0234492
-0.0374807
-0.0506879
-0.0540626
-0.0517651
-0.0425328
-0.0174441
-0.0179133
-0.0470154
-0.0632973
-0.0683986
-0.0626392
-0.0500677
-0.0407793
-0.0381297
-0.0382762
-0.0412651
-0.047562
-0.0546633
-0.0633073
-0.0737337
-0.0845219
-0.0962292
-0.102005
-0.0940889
-0.0757518
-0.0471545
-0.0120173
0.0168954
0.0419572
0.0644041
0.0761898
0.0829149
0.0859737
0.0823444
0.076668
0.0686761
0.0579503
0.0465959
0.035081
0.0227544
0.0123244
0.00259069
-0.00571946
-0.0112604
-0.016599
-0.0185918
-0.0208849
-0.0207871
-0.0208343
-0.0198854
-0.0188257
-0.0177888
-0.0165899
-0.015856
-0.0151221
-0.0148619
-0.014862
-0.0151222
-0.0158561
-0.0165902
-0.0177891
-0.0188262
-0.019886
-0.0208351
-0.020788
-0.020886
-0.0185929
-0.0166003
-0.0112616
-0.00572063
0.00258975
0.0123237
0.0227541
0.0350812
0.0465963
0.0579511
0.0686773
0.0766693
0.0823459
0.0859755
0.0829164
0.0761913
0.0644058
0.0419579
0.0168959
-0.0120169
-0.0471552
-0.0757528
-0.0940898
-0.102006
-0.0962294
-0.084522
-0.0737341
-0.0633074
-0.0546628
-0.0475615
-0.0412649
-0.0382764
-0.03813
-0.0407791
-0.0500677
-0.0626402
-0.0684005
-0.0632997
-0.0470181
-0.0179146
-0.0121042
-0.038145
-0.0624869
-0.0726838
-0.0651887
-0.053862
-0.0499529
-0.0488506
-0.0470117
-0.0502018
-0.0594153
-0.0687698
-0.0737337
-0.0756162
-0.0843132
-0.102167
-0.114693
-0.115256
-0.104626
-0.0791679
-0.0485982
-0.020084
0.0107346
0.0349341
0.0521322
0.0693155
0.0800923
0.0866103
0.0908963
0.0898187
0.0855915
0.0796113
0.0713693
0.0623469
0.0546134
0.0455001
0.0391493
0.0322622
0.0266733
0.0223653
0.0173336
0.0147679
0.0105558
0.00888338
0.00574162
0.00455983
0.00253963
0.00178894
0.000815818
0.000554416
0.000554396
0.000815829
0.00178891
0.00253963
0.00455982
0.0057416
0.00888339
0.0105557
0.0147679
0.0173335
0.0223652
0.0266731
0.032262
0.0391491
0.0454999
0.0546134
0.062347
0.0713698
0.0796122
0.0855926
0.0898202
0.090898
0.0866117
0.0800937
0.0693166
0.0521326
0.0349348
0.010735
-0.0200844
-0.0485984
-0.0791686
-0.104627
-0.115258
-0.114694
-0.102167
-0.0843121
-0.0756155
-0.0737341
-0.0687702
-0.0594152
-0.0502016
-0.0470121
-0.0488512
-0.0499529
-0.0538615
-0.0651895
-0.0726863
-0.0624893
-0.0381461
-0.0121044
-0.0049103
-0.0243401
-0.0524026
-0.0658599
-0.0594283
-0.05221
-0.0520539
-0.0499073
-0.0471403
-0.054338
-0.0700947
-0.082522
-0.0845219
-0.0843132
-0.0951759
-0.111471
-0.121461
-0.126219
-0.120023
-0.0996147
-0.0764857
-0.0502373
-0.0232141
-0.00360516
0.0164364
0.0344333
0.0469367
0.0602811
0.0709491
0.0793681
0.0872724
0.09343
0.0966678
0.0990602
0.0984073
0.0949801
0.0914484
0.0835077
0.0776249
0.0683422
0.061019
0.0528518
0.0454597
0.0393861
0.0331607
0.029185
0.0248467
0.0226483
0.0204579
0.019759
0.019759
0.0204578
0.0226482
0.0248465
0.0291848
0.0331606
0.0393861
0.0454597
0.052852
0.0610194
0.0683428
0.0776259
0.0835088
0.0914499
0.0949816
0.0984089
0.0990619
0.0966691
0.0934313
0.0872733
0.0793687
0.0709496
0.0602814
0.0469366
0.0344334
0.016436
-0.00360585
-0.0232143
-0.0502376
-0.0764859
-0.0996147
-0.120024
-0.126219
-0.121461
-0.111472
-0.0951755
-0.0843121
-0.084522
-0.0825232
-0.0700955
-0.0543377
-0.0471402
-0.049908
-0.0520542
-0.0522093
-0.0594287
-0.0658625
-0.0524046
-0.0243396
-0.00490948
-0.000622384
-0.0127628
-0.0361294
-0.049617
-0.0500074
-0.0497813
-0.0478253
-0.0396569
-0.0370987
-0.050487
-0.0722939
-0.0889652
-0.0962292
-0.102167
-0.111471
-0.118669
-0.126995
-0.137521
-0.135697
-0.12149
-0.101645
-0.0738385
-0.0478894
-0.0267669
-0.00702981
0.00540905
0.0166423
0.0285515
0.0386718
0.0500963
0.0611067
0.0705611
0.0780415
0.0849383
0.0876358
0.0909173
0.0914357
0.090965
0.091404
0.088608
0.0891795
0.0858534
0.0860704
0.0833192
0.0830171
0.0811671
0.0806133
0.0795958
0.0791887
0.0788682
0.0788682
0.0791887
0.0795959
0.0806134
0.0811673
0.0830172
0.0833194
0.0860707
0.0858535
0.0891799
0.0886082
0.0914045
0.0909655
0.0914363
0.0909181
0.0876366
0.0849394
0.0780424
0.0705619
0.0611073
0.0500965
0.0386716
0.0285511
0.0166417
0.0054086
-0.00702985
-0.0267672
-0.0478895
-0.0738387
-0.101646
-0.12149
-0.135698
-0.137521
-0.126995
-0.118669
-0.111472
-0.102167
-0.0962294
-0.0889664
-0.0722951
-0.0504868
-0.0370975
-0.0396566
-0.047826
-0.0497815
-0.0500076
-0.0496186
-0.0361306
-0.0127619
-0.000621341
7.25747e-05
-0.00539699
-0.0177941
-0.0301848
-0.0411345
-0.0462665
-0.0375053
-0.0233682
-0.0225407
-0.0383208
-0.0614888
-0.0841307
-0.102005
-0.114693
-0.121461
-0.126995
-0.142369
-0.158828
-0.159461
-0.147616
-0.124355
-0.0917368
-0.0630378
-0.0390532
-0.0211314
-0.0101606
-0.000605714
0.0054839
0.010715
0.0159519
0.0212296
0.0268778
0.0340479
0.0423281
0.0502493
0.0611128
0.0686715
0.0791191
0.0859838
0.0932405
0.0990959
0.102565
0.107001
0.107736
0.110613
0.110062
0.111619
0.110887
0.111524
0.111219
0.111219
0.111524
0.110888
0.111619
0.110063
0.110614
0.107737
0.107002
0.102566
0.0990968
0.0932413
0.0859844
0.0791196
0.0686716
0.0611127
0.0502489
0.0423275
0.0340473
0.0268771
0.0212291
0.0159514
0.0107146
0.00548359
-0.000605903
-0.0101608
-0.0211311
-0.0390526
-0.063037
-0.0917361
-0.124355
-0.147617
-0.159462
-0.158829
-0.142369
-0.126995
-0.121461
-0.114694
-0.102006
-0.0841316
-0.0614897
-0.0383208
-0.022539
-0.0233666
-0.0375058
-0.0462681
-0.0411354
-0.0301849
-0.0177939
-0.00539625
7.3132e-05
-0.000905126
-0.00112098
-0.0024613
-0.0139196
-0.0325248
-0.0385837
-0.0251587
-0.0108235
-0.00948733
-0.0185593
-0.0373819
-0.0653414
-0.0940889
-0.115256
-0.126219
-0.137521
-0.158828
-0.176146
-0.179739
-0.174121
-0.153528
-0.122226
-0.0918675
-0.0619798
-0.0372672
-0.0201007
-0.00892476
-0.00310313
0.000202152
0.00206843
0.00502088
0.00798702
0.0133731
0.0182561
0.0243096
0.0305222
0.034963
0.0415562
0.0441742
0.050036
0.0519265
0.0563283
0.0583107
0.0611701
0.0632697
0.0649132
0.0666987
0.0675131
0.0685327
0.0687756
0.0687756
0.0685327
0.067513
0.0666987
0.0649131
0.0632697
0.0611701
0.0583107
0.0563284
0.0519266
0.0500362
0.0441742
0.0415565
0.0349632
0.0305223
0.0243096
0.0182559
0.0133727
0.00798643
0.0050203
0.0020679
0.00020189
-0.0031031
-0.00892443
-0.0201002
-0.0372666
-0.0619795
-0.0918672
-0.122226
-0.153528
-0.174121
-0.17974
-0.176148
-0.158829
-0.137521
-0.126219
-0.115258
-0.0940898
-0.0653415
-0.0373816
-0.018559
-0.00948625
-0.0108217
-0.0251586
-0.0385857
-0.0325263
-0.013919
-0.00246004
-0.00112054
-0.00090515
-0.00178278
0.00103413
0.00655316
-0.00280945
-0.0218992
-0.0273186
-0.0171178
-0.00645034
0.00198237
0.00621781
-0.00663638
-0.0383465
-0.0757518
-0.104626
-0.120023
-0.135697
-0.159461
-0.179739
-0.196575
-0.206701
-0.193992
-0.165804
-0.13162
-0.0924838
-0.0601727
-0.0368281
-0.0191882
-0.00782876
-0.00116664
0.00351402
0.00565478
0.00541241
0.00556458
0.00302355
0.00251353
0.000917122
0.000942402
0.00224729
0.00336897
0.00747401
0.00960805
0.0150881
0.0177942
0.0230959
0.0257987
0.0299205
0.0320681
0.0345945
0.0357751
0.0366173
0.0366173
0.0357751
0.0345944
0.032068
0.0299203
0.0257984
0.0230956
0.0177938
0.0150876
0.00960735
0.00747329
0.00336813
0.00224649
0.00094166
0.000916504
0.00251318
0.00302336
0.00556473
0.00541265
0.00565521
0.00351448
-0.00116625
-0.00782819
-0.0191876
-0.0368275
-0.0601718
-0.0924833
-0.13162
-0.165804
-0.193993
-0.206702
-0.196575
-0.17974
-0.159462
-0.135698
-0.120024
-0.104627
-0.0757528
-0.0383462
-0.00663474
0.00621928
0.00198286
-0.00644985
-0.0171176
-0.0273199
-0.0219006
-0.0028088
0.00655473
0.00103443
-0.00178307
-0.00222216
0.00119305
0.00945551
0.00456829
-0.00969722
-0.0165084
-0.0145668
-0.00587257
0.0121434
0.0264227
0.0190132
-0.00939654
-0.0471545
-0.0791679
-0.0996147
-0.12149
-0.147616
-0.174121
-0.206701
-0.227592
-0.221071
-0.20171
-0.171
-0.132841
-0.100863
-0.0713975
-0.0464206
-0.0294552
-0.0167506
-0.00785885
-0.00377415
-0.000723036
0.00142361
0.00147554
0.00403515
0.00397389
0.00618106
0.00707831
0.00810641
0.00963792
0.00952996
0.0111089
0.0103954
0.0116814
0.0108815
0.0117754
0.0111811
0.0116953
0.0113967
0.0115635
0.0115635
0.0113968
0.0116953
0.0111811
0.0117755
0.0108815
0.0116815
0.0103955
0.0111091
0.00953007
0.00963807
0.00810647
0.00707833
0.00618102
0.00397373
0.00403506
0.00147534
0.00142364
-0.000722895
-0.00377385
-0.00785821
-0.0167501
-0.0294546
-0.04642
-0.0713974
-0.100863
-0.132841
-0.171001
-0.20171
-0.221072
-0.227595
-0.206702
-0.174121
-0.147617
-0.12149
-0.0996147
-0.0791686
-0.0471551
-0.00939627
0.019015
0.026425
0.0121441
-0.00587331
-0.0145675
-0.0165091
-0.00969785
0.00456884
0.00945667
0.00119322
-0.00222245
-0.00270791
-0.000479716
0.00861526
0.00968895
0.00139023
-0.00814934
-0.0132577
-0.00540061
0.0159101
0.0346123
0.0382469
0.0224396
-0.0120173
-0.0485982
-0.0764857
-0.101645
-0.124355
-0.153528
-0.193992
-0.221071
-0.231047
-0.231236
-0.209578
-0.177572
-0.145914
-0.112156
-0.0856795
-0.0651196
-0.0473317
-0.0336328
-0.0228114
-0.0121172
-0.0046984
0.000970444
0.00639643
0.00688805
0.0096237
0.00762781
0.00744941
0.00548158
0.00342311
0.00244943
-0.000104902
-0.000211426
-0.00234404
-0.00204114
-0.00342683
-0.00310066
-0.00375332
-0.00362217
-0.0036222
-0.00375339
-0.00310078
-0.00342699
-0.0020413
-0.00234426
-0.000211583
-0.000105099
0.00244937
0.00342307
0.00548172
0.00744969
0.0076282
0.00962435
0.00688863
0.00639724
0.000971087
-0.00469783
-0.0121167
-0.0228112
-0.0336325
-0.0473315
-0.0651196
-0.0856793
-0.112156
-0.145915
-0.177573
-0.209579
-0.231238
-0.231048
-0.221072
-0.193993
-0.153528
-0.124356
-0.101646
-0.0764859
-0.0485984
-0.0120169
0.0224408
0.0382483
0.0346139
0.0159108
-0.00540167
-0.0132591
-0.00814967
0.00139053
0.00968956
0.00861582
-0.000479846
-0.0027082
-0.00354248
-0.00325009
0.00637794
0.0130697
0.00957837
-0.00169818
-0.01075
-0.00583418
0.0125007
0.0354063
0.0532885
0.0486471
0.0168954
-0.020084
-0.0502373
-0.0738385
-0.0917368
-0.122226
-0.165804
-0.20171
-0.231236
-0.242856
-0.226457
-0.203492
-0.176258
-0.146694
-0.123891
-0.102869
-0.0846051
-0.0698062
-0.0572645
-0.0453083
-0.0375945
-0.029035
-0.0225373
-0.0179902
-0.0109122
-0.00892755
-0.00225267
-0.000858188
0.00395398
0.00568861
0.00825137
0.0102161
0.0110993
0.0128311
0.0128751
0.0140184
0.0138765
0.0142705
0.0142705
0.0138766
0.0140185
0.0128751
0.0128313
0.0110994
0.0102163
0.00825148
0.00568873
0.00395408
-0.000858196
-0.00225257
-0.00892766
-0.0109121
-0.0179903
-0.0225372
-0.0290347
-0.0375943
-0.0453079
-0.0572643
-0.0698061
-0.0846052
-0.10287
-0.123891
-0.146694
-0.176259
-0.203493
-0.226458
-0.242859
-0.231238
-0.20171
-0.165804
-0.122226
-0.0917361
-0.0738387
-0.0502376
-0.0200844
0.0168959
0.0486491
0.0532904
0.0354071
0.0125005
-0.00583531
-0.0107513
-0.00169838
0.00957924
0.0130705
0.00637804
-0.00325068
-0.00354289
-0.00436926
-0.00579501
0.00414503
0.0145759
0.0143088
0.00329259
-0.00699451
-0.00612951
0.00707997
0.031832
0.0580186
0.0627313
0.0419572
0.0107346
-0.0232141
-0.0478894
-0.0630378
-0.0918675
-0.13162
-0.171
-0.209578
-0.226457
-0.223499
-0.215008
-0.193116
-0.169416
-0.150417
-0.131883
-0.117646
-0.106691
-0.0962007
-0.0856105
-0.0774018
-0.0653476
-0.0571685
-0.0468068
-0.0376732
-0.0313259
-0.0222088
-0.019427
-0.0118983
-0.0109738
-0.00585089
-0.00545277
-0.00255902
-0.00218042
-0.000829309
-0.000491142
-7.12637e-06
0.000130539
0.000130598
-7.11662e-06
-0.000491013
-0.000829215
-0.00218022
-0.00255881
-0.0054525
-0.00585054
-0.0109735
-0.0118978
-0.0194267
-0.0222083
-0.0313257
-0.0376729
-0.0468067
-0.0571687
-0.0653477
-0.0774022
-0.0856109
-0.0962011
-0.106691
-0.117646
-0.131884
-0.150418
-0.169417
-0.193117
-0.215009
-0.223499
-0.226458
-0.209579
-0.171001
-0.13162
-0.0918672
-0.063037
-0.0478895
-0.0232142
0.010735
0.0419578
0.062733
0.0580204
0.0318324
0.0070793
-0.0061306
-0.00699563
0.00329242
0.0143099
0.014577
0.00414496
-0.00579605
-0.0043699
-0.00431643
-0.00661631
0.0021993
0.0135748
0.0158753
0.00770077
-0.00168292
-0.00519831
0.000991181
0.0232031
0.0542184
0.0715446
0.0644041
0.0349341
-0.00360516
-0.0267669
-0.0390532
-0.0619798
-0.0924838
-0.132841
-0.177572
-0.203492
-0.215008
-0.210826
-0.190297
-0.173059
-0.1567
-0.142106
-0.133132
-0.125619
-0.117792
-0.111616
-0.10578
-0.0973722
-0.0937042
-0.0849121
-0.0809418
-0.0743579
-0.068476
-0.064619
-0.0573694
-0.0552988
-0.0481975
-0.0469008
-0.0411637
-0.0401743
-0.0363313
-0.0356381
-0.0337514
-0.0334964
-0.0334963
-0.0337514
-0.0356381
-0.0363313
-0.0401743
-0.0411637
-0.046901
-0.0481975
-0.055299
-0.0573694
-0.0646192
-0.0684761
-0.074358
-0.080942
-0.084912
-0.0937044
-0.0973722
-0.10578
-0.111617
-0.117793
-0.12562
-0.133132
-0.142107
-0.1567
-0.173059
-0.190297
-0.210827
-0.215009
-0.203493
-0.177573
-0.132841
-0.0924833
-0.0619795
-0.0390526
-0.0267671
-0.00360583
0.0349348
0.0644057
0.0715463
0.0542194
0.0232027
0.000990103
-0.00519911
-0.00168349
0.00770067
0.0158761
0.0135759
0.00219924
-0.00661755
-0.00431722
-0.0026046
-0.00481811
0.000102919
0.00983501
0.0156116
0.0124042
0.00399079
-0.00433371
-0.00451536
0.0144888
0.0475303
0.073293
0.0761898
0.0521322
0.0164364
-0.00702981
-0.0211314
-0.0372672
-0.0601727
-0.100863
-0.145914
-0.176258
-0.193116
-0.190297
-0.177509
-0.164447
-0.147832
-0.137183
-0.130378
-0.125881
-0.123464
-0.123394
-0.121706
-0.119914
-0.119326
-0.11337
-0.112793
-0.105201
-0.102759
-0.0965882
-0.0919252
-0.0882086
-0.082482
-0.0806949
-0.0753748
-0.0746434
-0.070739
-0.0704689
-0.0684457
-0.0683767
-0.0683767
-0.0684457
-0.0704689
-0.0707389
-0.0746435
-0.0753748
-0.080695
-0.0824819
-0.0882087
-0.0919253
-0.0965884
-0.102759
-0.105202
-0.112793
-0.11337
-0.119326
-0.119915
-0.121707
-0.123395
-0.123464
-0.125881
-0.130379
-0.137184
-0.147832
-0.164447
-0.177509
-0.190297
-0.193117
-0.176259
-0.145915
-0.100863
-0.0601718
-0.0372666
-0.0211311
-0.00702983
0.016436
0.0521326
0.0761913
0.0732948
0.047531
0.014488
-0.00451684
-0.00433439
0.00399082
0.0124044
0.0156122
0.00983572
0.000102847
-0.00481915
-0.00260529
0.00089491
-0.000514653
-0.0024273
0.0040884
0.014683
0.0169033
0.00852811
-0.0030527
-0.00669505
0.00746417
0.0364116
0.066876
0.0829149
0.0693155
0.0344333
0.00540905
-0.0101606
-0.0201007
-0.0368281
-0.0713975
-0.112156
-0.146694
-0.169416
-0.173059
-0.164447
-0.148293
-0.132299
-0.122069
-0.114707
-0.113135
-0.1129
-0.115217
-0.115796
-0.11817
-0.118752
-0.118277
-0.12023
-0.116743
-0.119412
-0.114976
-0.116638
-0.113149
-0.113035
-0.11107
-0.109674
-0.108875
-0.107211
-0.106999
-0.105939
-0.105913
-0.105913
-0.105939
-0.106999
-0.107211
-0.108875
-0.109674
-0.111071
-0.113035
-0.113149
-0.116639
-0.114976
-0.119413
-0.116743
-0.120231
-0.118277
-0.118752
-0.11817
-0.115796
-0.115218
-0.112901
-0.113135
-0.114707
-0.122069
-0.132299
-0.148293
-0.164447
-0.173059
-0.169416
-0.146694
-0.112156
-0.0713974
-0.0368275
-0.0201002
-0.0101608
0.00540862
0.0344335
0.0693166
0.0829163
0.066877
0.0364118
0.00746328
-0.00669644
-0.00305335
0.00852846
0.0169039
0.0146834
0.00408849
-0.00242753
-0.000515137
0.000894625
0.00555161
0.0053263
-0.00515096
-0.00244062
0.0134394
0.0205026
0.0120069
-0.000799509
-0.00657713
0.00110102
0.0240897
0.0586357
0.0859737
0.0800923
0.0469367
0.0166423
-0.000605714
-0.00892476
-0.0191882
-0.0464206
-0.0856795
-0.123891
-0.150417
-0.1567
-0.147832
-0.132299
-0.116397
-0.102647
-0.0949324
-0.0920086
-0.0911759
-0.0947372
-0.0970458
-0.102273
-0.105202
-0.109498
-0.112575
-0.114451
-0.117913
-0.117312
-0.120789
-0.118842
-0.121613
-0.119558
-0.12126
-0.11976
-0.120547
-0.11972
-0.119974
-0.119719
-0.119719
-0.119974
-0.11972
-0.120547
-0.11976
-0.12126
-0.119558
-0.121613
-0.118842
-0.120789
-0.117312
-0.117914
-0.114452
-0.112575
-0.109499
-0.105202
-0.102273
-0.0970459
-0.0947372
-0.0911759
-0.0920087
-0.0949324
-0.102646
-0.116397
-0.132299
-0.147832
-0.1567
-0.150418
-0.123891
-0.0856793
-0.0464201
-0.0191876
-0.00892443
-0.000605887
0.0166417
0.0469366
0.0800937
0.0859754
0.0586364
0.0240893
0.00109999
-0.00657823
-0.000800037
0.0120074
0.0205035
0.0134397
-0.00244124
-0.0051515
0.00532658
0.00555193
0.0102199
0.011256
-0.00743543
-0.00836101
0.0118943
0.0227094
0.0144581
0.00173666
-0.00494387
-0.00262461
0.0135754
0.0476337
0.0823444
0.0866103
0.0602811
0.0285515
0.0054839
-0.00310313
-0.00782876
-0.0294552
-0.0651196
-0.102869
-0.131883
-0.142106
-0.137183
-0.122069
-0.102647
-0.0866807
-0.0764435
-0.0703751
-0.0694923
-0.0720507
-0.0745415
-0.0801204
-0.0836914
-0.0886604
-0.092548
-0.0960453
-0.0997051
-0.101874
-0.105055
-0.106178
-0.108794
-0.109213
-0.111195
-0.111255
-0.112563
-0.112515
-0.113156
-0.113128
-0.113128
-0.113156
-0.112515
-0.112563
-0.111255
-0.111196
-0.109213
-0.108794
-0.106178
-0.105055
-0.101874
-0.0997052
-0.0960454
-0.0925481
-0.0886605
-0.0836915
-0.0801205
-0.0745415
-0.0720507
-0.0694922
-0.0703749
-0.0764434
-0.0866805
-0.102646