/*--------------------------------*- C++ -*----------------------------------*\
  =========                 |
  \\      /  F ield         | OpenFOAM: The Open Source CFD Toolbox
   \\    /   O peration     | Website:  https://openfoam.org
    \\  /    A nd           | Version:  dev
     \\/     M anipulation  |
\*---------------------------------------------------------------------------*/
FoamFile
{
    format      ascii;
    class       volScalarField;
    location    "30";
    object      h_0;
}
// * * * * * * * * * * * * * * * * * * * * * * * * * * * * * * * * * * * * * //

dimensions      [0 1 0 0 0 0 0];

internalField   nonuniform List<scalar> 
10000
(
0.0110402
0.0281989
0.0342042
0.0304232
0.0233288
0.0185376
0.0169951
0.0156959
0.0109764
0.0016381
-0.00959447
-0.017413
-0.0179448
-0.0121624
-0.00492358
-0.000557058
0.000187153
-0.000794579
-0.00170719
-0.00218127
-0.0026899
-0.00354345
-0.00439929
-0.00439099
-0.002729
0.000735439
0.0053907
0.0101006
0.0136194
0.0150092
0.0138687
0.0103588
0.00507833
-0.00114564
-0.00746506
-0.0131633
-0.0177462
-0.0209596
-0.0227647
-0.023286
-0.0227492
-0.0214292
-0.0196042
-0.0175302
-0.0154229
-0.013454
-0.011752
-0.010408
-0.00948241
-0.00901123
-0.00901126
-0.0094825
-0.0104082
-0.0117523
-0.0134544
-0.0154234
-0.0175309
-0.0196051
-0.0214303
-0.0227505
-0.0232874
-0.0227661
-0.0209611
-0.0177475
-0.0131643
-0.00746556
-0.00114556
0.00507902
0.01036
0.0138703
0.0150108
0.0136209
0.0101015
0.00539102
0.000735148
-0.00272969
-0.00439178
-0.00439993
-0.00354387
-0.00269019
-0.00218158
-0.00170749
-0.000794598
0.000187722
-0.000556005
-0.00492276
-0.0121627
-0.0179461
-0.0174145
-0.00959514
0.00163857
0.0109774
0.0156966
0.016995
0.0185371
0.0233288
0.0304244
0.0342067
0.0282014
0.0110413
0.0281989
0.0729382
0.0912137
0.085777
0.0707276
0.0582519
0.0509278
0.043376
0.0286576
0.00464917
-0.0227031
-0.0424282
-0.0469658
-0.0381307
-0.0242911
-0.0126528
-0.00525848
-0.000992939
0.00114188
0.00128847
-0.000394576
-0.00318944
-0.00578585
-0.00668244
-0.00496234
-0.000713443
0.00511665
0.0110868
0.0157624
0.018138
0.0177997
0.0149113
0.0100672
0.00406939
-0.00226039
-0.00822086
-0.0133157
-0.0172603
-0.0199695
-0.0215064
-0.0220333
-0.0217669
-0.0209357
-0.0197608
-0.0184334
-0.0171139
-0.0159259
-0.0149624
-0.014287
-0.0139398
-0.0139398
-0.0142871
-0.0149626
-0.0159262
-0.0171144
-0.0184339
-0.0197616
-0.0209366
-0.021768
-0.0220345
-0.0215077
-0.0199708
-0.0172616
-0.0133167
-0.00822156
-0.00226064
0.00406969
0.0100681
0.0149127
0.0178015
0.0181399
0.015764
0.0110878
0.00511689
-0.000713961
-0.00496341
-0.0066837
-0.00578689
-0.00319003
-0.000394706
0.00128864
0.00114219
-0.000992483
-0.00525771
-0.0126518
-0.0242907
-0.0381318
-0.0469685
-0.042431
-0.0227043
0.00465015
0.0286597
0.0433774
0.050928
0.0582514
0.0707281
0.0857802
0.0912194
0.0729441
0.0282014
0.0342042
0.0912137
0.121705
0.12619
0.115452
0.100011
0.083983
0.0651633
0.0393541
0.00643805
-0.0269034
-0.0516081
-0.0630236
-0.0621961
-0.0521979
-0.036061
-0.0178211
-0.00249245
0.00658129
0.00954589
0.00873746
0.00650176
0.00425616
0.00230108
0.000202887
-0.00233286
-0.0050795
-0.00741264
-0.00853157
-0.00782894
-0.00513604
-0.000722131
0.00479763
0.0106417
0.0160682
0.020488
0.0235426
0.0251137
0.0252692
0.0242274
0.0222711
0.0197133
0.0168461
0.0139222
0.0111451
0.00866456
0.00658855
0.00498485
0.00389735
0.00334828
0.0033483
0.0038974
0.00498494
0.0065887
0.0086648
0.0111455
0.0139227
0.0168468
0.0197142
0.0222722
0.0242287
0.0252706
0.0251151
0.023544
0.0204892
0.016069
0.0106421
0.00479748
-0.000722775
-0.00513706
-0.00783014
-0.00853272
-0.00741354
-0.00508006
-0.0023331
0.000202808
0.00230101
0.00425609
0.00650188
0.00873803
0.00954707
0.00658286
-0.0024912
-0.017821
-0.0360622
-0.0522
-0.0621985
-0.063026
-0.05161
-0.0269042
0.00643883
0.0393558
0.065165
0.0839842
0.100012
0.115454
0.126194
0.121711
0.0912194
0.0342067
0.0304232
0.085777
0.12619
0.146496
0.14743
0.1344
0.112605
0.0831134
0.045829
0.00546729
-0.0295078
-0.0539796
-0.0680774
-0.0722667
-0.0655267
-0.0494397
-0.0301133
-0.0138839
-0.00278681
0.00457661
0.0096935
0.013093
0.0146454
0.0137111
0.010033
0.00431728
-0.0022246
-0.00820365
-0.0123884
-0.0141056
-0.0132277
-0.0100677
-0.00526346
0.000452193
0.00639039
0.0119683
0.0168031
0.0206657
0.0234851
0.0253115
0.0262558
0.0264943
0.0261954
0.0255459
0.0246981
0.0237953
0.0229455
0.0222372
0.0217315
0.021469
0.0214691
0.0217316
0.0222375
0.0229458
0.0237957
0.0246986
0.0255465
0.0261962
0.0264952
0.0262568
0.0253126
0.0234862
0.0206667
0.016804
0.0119689
0.00639065
0.000451989
-0.00526417
-0.0100689
-0.0132292
-0.0141073
-0.0123901
-0.00820488
-0.0022252
0.0043174
0.0100338
0.0137122
0.0146465
0.0130938
0.00969412
0.00457716
-0.00278617
-0.0138833
-0.0301135
-0.0494413
-0.0655293
-0.0722691
-0.0680792
-0.0539811
-0.029509
0.00546709
0.0458303
0.0831158
0.112607
0.134403
0.147434
0.146501
0.126194
0.0857801
0.0304244
0.0233288
0.0707276
0.115452
0.14743
0.15921
0.151603
0.128361
0.0916337
0.0464229
0.00315742
-0.0295897
-0.0508117
-0.0625063
-0.0648508
-0.0589729
-0.0495082
-0.0406868
-0.0322389
-0.0218199
-0.00976743
0.00126482
0.00946772
0.0142505
0.0158717
0.0156434
0.014738
0.013517
0.0120009
0.00989197
0.00687168
0.00297919
-0.00150081
-0.00610256
-0.0102482
-0.0134848
-0.0155093
-0.0161856
-0.0156056
-0.0139299
-0.0114473
-0.00843624
-0.00517358
-0.00190313
0.00120182
0.00399096
0.00639102
0.00833443
0.0098063
0.0107862
0.0112778
0.0112778
0.0107863
0.00980632
0.00833444
0.00639099
0.00399087
0.00120163
-0.00190345
-0.00517406
-0.00843689
-0.0114482
-0.0139309
-0.0156067
-0.0161868
-0.0155105
-0.0134858
-0.0102489
-0.00610298
-0.00150089
0.00297939
0.00687207
0.00989243
0.0120013
0.0135174
0.0147384
0.015644
0.0158725
0.0142515
0.00946859
0.00126509
-0.00976809
-0.0218214
-0.0322405
-0.0406876
-0.0495085
-0.0589733
-0.0648516
-0.0625074
-0.0508132
-0.0295917
0.00315592
0.0464236
0.0916368
0.128365
0.151607
0.159214
0.147434
0.115454
0.0707281
0.0233288
0.0185376
0.0582519
0.100011
0.1344
0.151603
0.147114
0.121315
0.0809392
0.0390332
0.00580377
-0.0186699
-0.0377658
-0.0500897
-0.053593
-0.0516632
-0.0490836
-0.0456336
-0.0381683
-0.0271177
-0.0164428
-0.00816668
-0.00176907
0.00318932
0.00756949
0.0122601
0.016778
0.0204232
0.0226994
0.0230272
0.0213534
0.0179839
0.0132977
0.00786336
0.00223191
-0.00320854
-0.0080639
-0.0121489
-0.0153578
-0.0176401
-0.0191056
-0.0197981
-0.0199105
-0.0195452
-0.0188838
-0.0180452
-0.0171616
-0.0163341
-0.0156417
-0.0151491
-0.0148919
-0.0148919
-0.0151492
-0.0156419
-0.0163344
-0.017162
-0.0180457
-0.0188844
-0.0195459
-0.0199114
-0.019799
-0.0191065
-0.0176411
-0.0153587
-0.0121498
-0.00806462
-0.00320903
0.00223172
0.00786353
0.0132983
0.0179848
0.0213546
0.0230286
0.0227006
0.0204242
0.0167786
0.0122603
0.00756939
0.00318914
-0.0017693
-0.00816705
-0.0164435
-0.0271191
-0.0381704
-0.0456352
-0.0490839
-0.0516625
-0.0535925
-0.0500897
-0.0377662
-0.0186708
0.00580224
0.0390323
0.0809408
0.121319
0.147119
0.151607
0.134403
0.100012
0.0582514
0.0185371
0.0169951
0.0509278
0.083983
0.112605
0.128361
0.121315
0.0917095
0.0556153
0.0298997
0.0140965
-0.00298274
-0.0237776
-0.040877
-0.0497804
-0.0516297
-0.0472807
-0.0369693
-0.0246576
-0.0166442
-0.0141814
-0.0130293
-0.0106747
-0.00704084
-0.0018099
0.00384383
0.00839564
0.0118964
0.0143726
0.0160078
0.0173678
0.0185178
0.01938
0.0199231
0.0198891
0.0191618
0.0177904
0.0157127
0.0131872
0.0102972
0.0072611
0.00425966
0.0013715
-0.00122241
-0.00355121
-0.00549163
-0.00711498
-0.00835999
-0.00929252
-0.00989098
-0.0101924
-0.0101924
-0.00989104
-0.00929261
-0.0083601
-0.0071151
-0.00549175
-0.00355131
-0.00122246
0.00137151
0.00425976
0.0072613
0.0102976
0.0131876
0.0157132
0.0177909
0.0191624
0.0198896
0.0199236
0.0193804
0.0185181
0.0173681
0.0160082
0.0143731
0.0118968
0.00839597
0.00384385
-0.00181049
-0.00704198
-0.0106761
-0.0130306
-0.014182
-0.016644
-0.0246574
-0.0369697
-0.0472814
-0.0516299
-0.0497803
-0.0408767
-0.0237768
-0.00298139
0.0140969
0.0298983
0.055614
0.091711
0.121319
0.128365
0.112607
0.0839842
0.050928
0.016995
0.0156959
0.043376
0.0651633
0.0831134
0.0916337
0.0809392
0.0556153
0.0340829
0.0242426
0.0154706
-0.00116444
-0.0214345
-0.0384293
-0.0489508
-0.0498104
-0.0393884
-0.0229122
-0.0101882
-0.00576657
-0.0053089
-0.00500098
-0.00557212
-0.00599668
-0.00515495
-0.00434107
-0.00311087
-0.0008958
0.00161359
0.00463904
0.00810351
0.0115417
0.0149769
0.0182693
0.021117
0.0236192
0.0255553
0.026856
0.0276367
0.0276858
0.0273102
0.02637
0.0251464
0.0236589
0.0220695
0.0205053
0.019023
0.017769
0.0167454
0.0160572
0.0156946
0.0156946
0.0160573
0.0167455
0.0177692
0.0190232
0.0205056
0.0220699
0.0236594
0.0251469
0.0263706
0.027311
0.0276866
0.0276375
0.0268568
0.025556
0.0236198
0.0211175
0.0182697
0.0149771
0.0115417
0.00810336
0.0046387
0.00161314
-0.000896336
-0.00311153
-0.00434176
-0.00515577
-0.00599779
-0.00557327
-0.00500205
-0.00530963
-0.00576605
-0.0101864
-0.0229106
-0.0393881
-0.0498111
-0.0489515
-0.0384296
-0.0214341
-0.00116287
0.0154725
0.0242426
0.0340808
0.055614
0.0809408
0.0916368
0.0831158
0.065165
0.0433774
0.0156966
0.0109764
0.0286576
0.0393541
0.045829
0.0464229
0.0390332
0.0298997
0.0242426
0.0162588
0.00116784
-0.0151061
-0.0277131
-0.0388616
-0.0474382
-0.04735
-0.037023
-0.0221639
-0.00892197
0.00255922
0.0126785
0.0164437
0.0129859
0.00746357
0.00128018
-0.00434861
-0.00665312
-0.00661757
-0.00504835
-0.0019365
0.00144396
0.0047076
0.00788057
0.0105099
0.0126709
0.0145796
0.0158861
0.0170642
0.0178691
0.0184464
0.018958
0.0191625
0.0194703
0.0195013
0.0196601
0.0196336
0.0196962
0.0196636
0.0196784
0.0196588
0.0196597
0.0196597
0.0196588
0.0196784
0.0196637
0.0196962
0.0196337
0.0196602
0.0195014
0.0194704
0.0191626
0.0189581
0.0184466
0.0178693
0.0170645
0.0158864
0.01458
0.0126712
0.0105102
0.00788079
0.00470765
0.00144381
-0.00193695
-0.00504919
-0.00661868
-0.00665453
-0.0043501
0.00127909
0.00746289
0.0129858
0.0164444
0.0126793
0.00255973
-0.00892085
-0.0221622
-0.0370218
-0.0473498
-0.0474385
-0.0388619
-0.0277135
-0.0151064
0.00116862
0.0162602
0.0242426
0.0298982
0.0390323
0.0464235
0.0458303
0.0393558
0.0286596
0.0109774
0.0016381
0.00464917
0.00643805
0.00546729
0.00315742
0.00580377
0.0140965
0.0154706
0.00116784
-0.0179035
-0.0285012
-0.0339595
-0.0419957
-0.0508175
-0.0547401
-0.0506123
-0.038208
-0.018323
0.00652938
0.0268729
0.0351602
0.0359306
0.0323314
0.0236589
0.0148394
0.00773263
0.00128884
-0.00252802
-0.00424579
-0.00493423
-0.00433322
-0.00321721
-0.00222907
-0.00097672
6.84811e-05
0.000976632
0.00225946
0.00325512
0.00483491
0.00627039
0.00802182
0.00980296
0.0115091
0.013292
0.0147386
0.0161954
0.0172274
0.0181578
0.0186903
0.0190076
0.0190076
0.0186903
0.0181578
0.0172274
0.0161954
0.0147385
0.013292
0.011509
0.0098028
0.0080216
0.00627011
0.0048346
0.00325477
0.00225913
0.000976292
6.81876e-05
-0.000976992
-0.00222938
-0.00321753
-0.00433368
-0.00493486
-0.00424654
-0.002529
0.00128779
0.00773172
0.0148385
0.0236585
0.0323318
0.0359314
0.0351619
0.0268752
0.00653086
-0.0183227
-0.0382079
-0.050612
-0.0547398
-0.0508173
-0.0419955
-0.0339596
-0.0285023
-0.0179046
0.00116861
0.0154725
0.0140969
0.00580223
0.00315592
0.00546708
0.00643882
0.00465014
0.00163856
-0.00959447
-0.0227031
-0.0269034
-0.0295078
-0.0295897
-0.0186699
-0.00298274
-0.00116444
-0.0151061
-0.0285012
-0.034387
-0.0394864
-0.0482765
-0.0600693
-0.0706238
-0.0726619
-0.0616933
-0.0374492
-0.00653315
0.0192762
0.0385324
0.0536033
0.0584414
0.0546765
0.0480116
0.0369263
0.0245579
0.0139825
0.00410886
-0.00347202
-0.00828403
-0.0112426
-0.0120427
-0.0107922
-0.00882943
-0.00549226
-0.00201086
0.00146031
0.00511898
0.00778613
0.0106672
0.0123807
0.0141853
0.0151423
0.0160516
0.0165179
0.016877
0.017069
0.0171709
0.0172204
0.0172204
0.017171
0.0170691
0.0168772
0.0165182
0.0160519
0.0151426
0.0141856
0.012381
0.0106676
0.00778639
0.00511916
0.00146028
-0.00201108
-0.00549272
-0.00883019
-0.0107931
-0.012044
-0.0112439
-0.00828536
-0.00347336
0.00410777
0.0139817
0.0245574
0.0369265
0.0480124
0.0546776
0.0584432
0.0536052
0.0385339
0.019278
-0.0065315
-0.037449
-0.0616943
-0.0726631
-0.0706245
-0.0600692
-0.048276
-0.039486
-0.0343873
-0.0285023
-0.0151064
-0.00116288
-0.00298141
-0.0186708
-0.0295917
-0.029509
-0.0269042
-0.0227043
-0.00959514
-0.017413
-0.0424282
-0.0516081
-0.0539796
-0.0508117
-0.0377658
-0.0237776
-0.0214345
-0.0277131
-0.0339595
-0.0394864
-0.0459519
-0.0553089
-0.0694133
-0.0831602
-0.0894994
-0.0844915
-0.0655274
-0.0383602
-0.00936635
0.0224415
0.0487472
0.0629072
0.0717495
0.0736251
0.0672896
0.0590837
0.0481309
0.0356903
0.0249995
0.0155053
0.00768702
0.00255612
-0.00119637
-0.00377568
-0.00467529
-0.00606786
-0.00610989
-0.00677948
-0.00704177
-0.00718733
-0.00774105
-0.00756974
-0.00813484
-0.00784321
-0.00823313
-0.00796571
-0.00816151
-0.00800697
-0.00806233
-0.00806235
-0.00800704
-0.00816163
-0.00796586
-0.00823332
-0.00784341
-0.00813507
-0.00756995
-0.00774128
-0.00718751
-0.00704196
-0.00677967
-0.00611006
-0.00606815
-0.00467559
-0.0037762
-0.001197
0.00255538
0.00768613
0.0155046
0.0249989
0.0356899
0.0481312
0.0590844
0.0672907
0.0736268
0.0717513
0.0629088
0.0487492
0.0224427
-0.00936608
-0.0383599
-0.0655276
-0.0844924
-0.0895007
-0.0831614
-0.0694138
-0.0553084
-0.0459512
-0.039486
-0.0339596
-0.0277135
-0.0214341
-0.0237769
-0.0377662
-0.0508132
-0.0539811
-0.05161
-0.042431
-0.0174145
-0.0179448
-0.0469658
-0.0630236
-0.0680774
-0.0625063
-0.0500897
-0.040877
-0.0384293
-0.0388616
-0.0419957
-0.0482765
-0.0553089
-0.0639362
-0.074443
-0.0852429
-0.096791
-0.102377
-0.094266
-0.0757841
-0.0472103
-0.0120826
0.0168363
0.0417917
0.0642579
0.0761477
0.0829211
0.0861157
0.0826195
0.0770325
0.0691523
0.058508
0.0471941
0.0357094
0.0233756
0.0128885
0.00310836
-0.00531214
-0.010939
-0.0163877
-0.0184882
-0.0208628
-0.0208672
-0.0209648
-0.0200939
-0.0190618
-0.0180745
-0.0168891
-0.016181
-0.0154525
-0.0152001
-0.0152001
-0.0154526
-0.0161811
-0.0168894
-0.0180749
-0.0190622
-0.0200946
-0.0209655
-0.0208682
-0.0208639
-0.0184893
-0.016389
-0.0109401
-0.00531331
0.00310744
0.0128879
0.0233752
0.0357096
0.0471946
0.0585089
0.0691535
0.0770338
0.082621
0.0861175
0.0829226
0.0761493
0.0642595
0.0417924
0.0168367
-0.0120822
-0.047211
-0.0757851
-0.0942669
-0.102378
-0.0967912
-0.085243
-0.0744434
-0.0639363
-0.0553084
-0.048276
-0.0419955
-0.0388619
-0.0384296
-0.0408768
-0.0500897
-0.0625074
-0.0680792
-0.063026
-0.0469685
-0.0179461
-0.0121624
-0.0381307
-0.0621961
-0.0722667
-0.0648508
-0.053593
-0.0497804
-0.0489508
-0.0474382
-0.0508175
-0.0600693
-0.0694133
-0.074443
-0.0764003
-0.0850135
-0.102731
-0.115132
-0.115475
-0.104694
-0.0792028
-0.0485844
-0.0201699
0.0105193
0.0347268
0.0518561
0.0690295
0.0799143
0.0865044
0.0909241
0.0899981
0.0858806
0.0799923
0.0718275
0.0628157
0.0550962
0.0459769
0.0395827
0.0327051
0.0270584
0.0227651
0.0176957
0.0151348
0.0109113
0.0092316
0.00609482
0.00490009
0.00288916
0.00212745
0.00116046
0.000894858
0.000894838
0.00116047
0.00212743
0.00288916
0.00490008
0.0060948
0.00923161
0.0109113
0.0151348
0.0176956
0.022765
0.0270582
0.0327049
0.0395825
0.0459767
0.0550963
0.0628159
0.071828
0.0799932
0.0858818
0.0899997
0.0909258
0.0865058
0.0799156
0.0690305
0.0518565
0.0347274
0.0105197
-0.0201703
-0.0485846
-0.0792035
-0.104696
-0.115477
-0.115133
-0.102731
-0.0850123
-0.0763996
-0.0744434
-0.0694138
-0.0600692
-0.0508174
-0.0474385
-0.0489515
-0.0497803
-0.0535925
-0.0648517
-0.0722691
-0.0621985
-0.0381318
-0.0121627
-0.00492358
-0.0242911
-0.0521979
-0.0655267
-0.0589729
-0.0516632
-0.0516297
-0.0498104
-0.04735
-0.0547401
-0.0706238
-0.0831602
-0.0852429
-0.0850135
-0.0958426
-0.112208
-0.122125
-0.126611
-0.120201
-0.0995828
-0.0763131
-0.0501379
-0.0231721
-0.0036821
0.0161609
0.0341117
0.0465559
0.0598579
0.0705701
0.0790168
0.0869765
0.0932322
0.0965837
0.0990873
0.0986094
0.0952938
0.0919198
0.0840957
0.0782948
0.069118
0.0618037
0.0537103
0.0462877
0.0402497
0.0339851
0.0300171
0.0256478
0.0234456
0.0212389
0.0205372
0.0205372
0.0212388
0.0234455
0.0256476
0.030017
0.0339849
0.0402496
0.0462877
0.0537105
0.0618041
0.0691186
0.0782958
0.0840968
0.0919214
0.0952953
0.098611
0.0990889
0.096585
0.0932334
0.0869774
0.0790174
0.0705706
0.0598582
0.0465558
0.0341117
0.0161605
-0.00368278
-0.0231723
-0.0501382
-0.0763133
-0.0995827
-0.120201
-0.126611
-0.122126
-0.112208
-0.0958421
-0.0850123
-0.085243
-0.0831614
-0.0706245
-0.0547398
-0.0473498
-0.0498111
-0.0516299
-0.0516625
-0.0589733
-0.0655293
-0.0522
-0.0242907
-0.00492277
-0.000557058
-0.0126528
-0.036061
-0.0494397
-0.0495082
-0.0490836
-0.0472807
-0.0393884
-0.037023
-0.0506123
-0.0726619
-0.0894994
-0.096791
-0.102731
-0.112208
-0.119593
-0.1278
-0.138067
-0.136002
-0.121488
-0.101494
-0.0736876
-0.0477416
-0.026752
-0.00711205
0.00525833
0.0163414
0.0281817
0.0382397
0.0496237
0.060654
0.0701684
0.0777088
0.0846994
0.0874949
0.0908212
0.0914526
0.0909833
0.0915076
0.0887156
0.0893252
0.0860286
0.0862471
0.0835434
0.0832271
0.0814246
0.0808564
0.079872
0.0794568
0.079148
0.0791481
0.0794569
0.0798721
0.0808565
0.0814248
0.0832273
0.0835436
0.0862473
0.0860288
0.0893255
0.0887159
0.0915081
0.0909838
0.0914532
0.0908221
0.0874957
0.0847005
0.0777097
0.0701692
0.0606546
0.0496239
0.0382394
0.0281814
0.0163407
0.00525788
-0.00711208
-0.0267523
-0.0477417
-0.0736877
-0.101495
-0.121488
-0.136003
-0.138067
-0.1278
-0.119594
-0.112208
-0.102731
-0.0967912
-0.0895007
-0.0726631
-0.050612
-0.0370218
-0.0393881
-0.0472814
-0.0490839
-0.0495085
-0.0494413
-0.0360622
-0.0126518
-0.000556008
0.000187153
-0.00525848
-0.0178211
-0.0301133
-0.0406868
-0.0456336
-0.0369693
-0.0229122
-0.0221639
-0.038208
-0.0616933
-0.0844915
-0.102377
-0.115132
-0.122125
-0.1278
-0.143122
-0.159536
-0.160021
-0.147901
-0.124475
-0.0917083
-0.0628942
-0.038914
-0.0209988
-0.0101132
-0.00064299
0.00539516
0.0105429
0.0157237
0.0209292
0.0265072
0.0335793
0.0418126
0.0496503
0.0604921
0.0680531
0.078492
0.085452
0.0927168
0.0987103
0.102211
0.106776
0.107561
0.11053
0.110032
0.111643
0.11095
0.111612
0.111321
0.111321
0.111612
0.110951
0.111643
0.110032
0.110531
0.107561
0.106776
0.102212
0.0987112
0.0927176
0.0854526
0.0784924
0.0680531
0.0604921
0.0496499
0.041812
0.0335787
0.0265065
0.0209286
0.0157232
0.0105424
0.00539485
-0.000643176
-0.0101134
-0.0209985
-0.0389134
-0.0628934
-0.0917076
-0.124476
-0.147902
-0.160022
-0.159537
-0.143122
-0.1278
-0.122126
-0.115133
-0.102378
-0.0844924
-0.0616943
-0.038208
-0.0221622
-0.0229106
-0.0369697
-0.0456352
-0.0406876
-0.0301135
-0.017821
-0.00525772
0.000187727
-0.000794579
-0.000992939
-0.00249245
-0.0138839
-0.0322389
-0.0381683
-0.0246576
-0.0101882
-0.00892197
-0.018323
-0.0374492
-0.0655274
-0.094266
-0.115475
-0.126611
-0.138067
-0.159536
-0.177019
-0.180495
-0.174591
-0.153789
-0.122268
-0.0918001
-0.0619307
-0.0372266
-0.0200796
-0.00890614
-0.00310678
0.000169841
0.00197719
0.00486068
0.00776012
0.0130749
0.0179382
0.0239353
0.0301776
0.034586
0.0412097
0.043828
0.0496837
0.0516028
0.0559635
0.0579858
0.0607922
0.0629275
0.0645261
0.0663359
0.0671225
0.0681537
0.0683875
0.0683875
0.0681537
0.0671224
0.0663359
0.064526
0.0629275
0.0607921
0.0579857
0.0559636
0.0516028
0.0496839
0.0438281
0.04121
0.0345861
0.0301777
0.0239353
0.0179379
0.0130745
0.00775953
0.00486009
0.00197667
0.000169587
-0.00310674
-0.00890581
-0.0200791
-0.0372261
-0.0619304
-0.0917997
-0.122267
-0.153789
-0.174591
-0.180495
-0.177021
-0.159537
-0.138067
-0.126611
-0.115477
-0.0942669
-0.0655276
-0.037449
-0.0183227
-0.00892086
-0.0101864
-0.0246574
-0.0381703
-0.0322404
-0.0138833
-0.00249121
-0.000992489
-0.000794588
-0.00170719
0.00114188
0.00658129
-0.00278681
-0.0218199
-0.0271177
-0.0166442
-0.00576657
0.00255922
0.00652938
-0.00653315
-0.0383602
-0.0757841
-0.104694
-0.120201
-0.136002
-0.160021
-0.180495
-0.197185
-0.207144
-0.194349
-0.166009
-0.131799
-0.0926734
-0.0603005
-0.0369491
-0.0193063
-0.00791511
-0.00122611
0.00347609
0.00567984
0.00545753
0.00563666
0.00309891
0.00253804
0.000913773
0.000826833
0.0020798
0.00307614
0.00711912
0.00915681
0.0145756
0.0172294
0.0224785
0.0251644
0.0292473
0.0313962
0.0338992
0.0350844
0.0359189
0.0359189
0.0350844
0.0338991
0.0313961
0.0292471
0.0251641
0.0224782
0.0172289
0.0145751
0.0091561
0.0071184
0.00307529
0.00207901
0.000826098
0.000913168
0.00253771
0.00309873
0.00563682
0.00545778
0.00568027
0.00347655
-0.00122572
-0.00791453
-0.0193057
-0.0369484
-0.0602996
-0.0926728
-0.131799
-0.166009
-0.19435
-0.207145
-0.197185
-0.180495
-0.160022
-0.136003
-0.120201
-0.104696
-0.0757851
-0.0383599
-0.00653152
0.00653084
0.00255972
-0.00576605
-0.016644
-0.0271191
-0.0218214
-0.00278617
0.00658285
0.00114219
-0.00170748
-0.00218127
0.00128847
0.00954589
0.00457661
-0.00976743
-0.0164428
-0.0141814
-0.0053089
0.0126785
0.0268729
0.0192762
-0.00936635
-0.0472103
-0.0792028
-0.0995828
-0.121488
-0.147901
-0.174591
-0.207144
-0.228101
-0.221498
-0.201922
-0.171183
-0.132982
-0.101009
-0.0716506
-0.0466853
-0.0297029
-0.0169812
-0.00802501
-0.00387985
-0.000823289
0.00136565
0.00140122
0.00395271
0.0039029
0.0060769
0.00701289
0.00801344
0.00958773
0.00946731
0.0110757
0.0103606
0.0116586
0.0108615
0.0117552
0.0111641
0.0116738
0.0113771
0.0115416
0.0115416
0.0113771
0.0116738
0.0111641
0.0117552
0.0108616
0.0116587
0.0103607
0.0110759
0.00946742
0.00958787
0.00801349
0.00701291
0.00607686
0.00390273
0.00395262
0.00140102
0.00136568
-0.000823143
-0.00387954
-0.00802436
-0.0169806
-0.0297023
-0.0466848
-0.0716505
-0.101009
-0.132982
-0.171183
-0.201923
-0.221499
-0.228104
-0.207145
-0.174591
-0.147902
-0.121488
-0.0995827
-0.0792035
-0.047211
-0.00936609
0.019278
0.0268752
0.0126793
-0.00530961
-0.014182
-0.0164434
-0.00976808
0.00457715
0.00954706
0.00128865
-0.00218157
-0.0026899
-0.000394576
0.00873746
0.0096935
0.00126482
-0.00816668
-0.0130293
-0.00500098
0.0164437
0.0351602
0.0385324
0.0224415
-0.0120826
-0.0485844
-0.0763131
-0.101494
-0.124475
-0.153789
-0.194349
-0.221498
-0.23121
-0.231219
-0.209608
-0.177599
-0.146071
-0.112442
-0.0860016
-0.0655188
-0.0477616
-0.0340523
-0.023223
-0.012498
-0.0049816
0.000730403
0.00627612
0.00684502
0.00964307
0.00774176
0.00755804
0.00566482
0.00356587
0.00262783
2.91107e-05
-7.49413e-05
-0.0022412
-0.00195212
-0.00335823
-0.00304664
-0.00370854
-0.00358326
-0.00358329
-0.00370861
-0.00304676
-0.00335839
-0.00195229
-0.00224141
-7.50927e-05
2.89208e-05
0.00262778
0.00356584
0.00566497
0.00755833
0.00774216
0.00964372
0.00684561
0.00627693
0.00073104
-0.00498104
-0.0124975
-0.0232228
-0.034052
-0.0477614
-0.0655188
-0.0860014
-0.112442
-0.146072
-0.177599
-0.209609
-0.231221
-0.231211
-0.221499
-0.19435
-0.153789
-0.124476
-0.101495
-0.0763133
-0.0485846
-0.0120822
0.0224427
0.0385339
0.0351619
0.0164444
-0.00500203
-0.0130306
-0.00816703
0.00126509
0.00969411
0.00873802
-0.000394697
-0.00269018
-0.00354345
-0.00318944
0.00650176
0.013093
0.00946772
-0.00176907
-0.0106747
-0.00557212
0.0129859
0.0359306
0.0536033
0.0487472
0.0168363
-0.0201699
-0.0501379
-0.0736876
-0.0917083
-0.122268
-0.166009
-0.201922
-0.231219
-0.242829
-0.226394
-0.203335
-0.176222
-0.146753
-0.124066
-0.103194
-0.0850047
-0.0702414
-0.0577206
-0.0457415
-0.0379819
-0.0294363
-0.0228613
-0.0183513
-0.0112246
-0.00924036
-0.00256849
-0.0011194
0.00365837
0.00547741
0.00800396
0.0100504
0.0109107
0.012703
0.0127374
0.0139157
0.0137715
0.0141767
0.0141768
0.0137716
0.0139158
0.0127375
0.0127032
0.0109108
0.0100506
0.00800406
0.00547753
0.00365847
-0.00111941
-0.0025684
-0.00924047
-0.0112245
-0.0183513
-0.0228611
-0.029436
-0.0379817
-0.0457411
-0.0577204
-0.0702413
-0.0850047
-0.103194
-0.124067
-0.146753
-0.176223
-0.203335
-0.226395
-0.242831
-0.231221
-0.201923
-0.166009
-0.122267
-0.0917076
-0.0736877
-0.0501382
-0.0201703
0.0168367
0.0487492
0.0536052
0.0359314
0.0129858
-0.00557325
-0.0106761
-0.00176929
0.00946858
0.0130938
0.00650187
-0.00319002
-0.00354386
-0.00439929
-0.00578585
0.00425616
0.0146454
0.0142505
0.00318932
-0.00704084
-0.00599668
0.00746357
0.0323314
0.0584414
0.0629072
0.0417917
0.0105193
-0.0231721
-0.0477416
-0.0628942
-0.0918001
-0.131799
-0.171183
-0.209608
-0.226394
-0.223156
-0.214573
-0.192821
-0.169192
-0.150362
-0.131987
-0.117848
-0.106987
-0.0966043
-0.0860565
-0.077917
-0.0659155
-0.0577077
-0.0474074
-0.038176
-0.0318576
-0.0226448
-0.0198366
-0.0122575
-0.0112645
-0.00613621
-0.005657
-0.00278172
-0.00233427
-0.00100495
-0.000622959
-0.000152153
3.15288e-07
3.75254e-07
-0.000152143
-0.000622829
-0.00100486
-0.00233406
-0.0027815
-0.00565672
-0.00613586
-0.0112642
-0.012257
-0.0198363
-0.0226443
-0.0318573
-0.0381757
-0.0474073
-0.0577079
-0.0659156
-0.0779174
-0.0860569
-0.0966047
-0.106987
-0.117848
-0.131988
-0.150363
-0.169193
-0.192822
-0.214573
-0.223156
-0.226395
-0.209609
-0.171183
-0.131799
-0.0917997
-0.0628934
-0.0477417
-0.0231722
0.0105197
0.0417924
0.0629088
0.0584431
0.0323318
0.00746291
-0.00599777
-0.00704197
0.00318914
0.0142515
0.0146465
0.00425609
-0.00578688
-0.00439993
-0.00439099
-0.00668244
0.00230108
0.0137111
0.0158717
0.00756949
-0.0018099
-0.00515495
0.00128018
0.0236589
0.0546765
0.0717495
0.0642579
0.0347268
-0.0036821
-0.026752
-0.038914
-0.0619307
-0.0926734
-0.132982
-0.177599
-0.203335
-0.214573
-0.210388
-0.189849
-0.172608
-0.156422
-0.141938
-0.133084
-0.125707
-0.117987
-0.111848
-0.106108
-0.0977013
-0.0940604
-0.0853234
-0.0813085
-0.0748285
-0.068882
-0.0651238
-0.0578338
-0.0558205
-0.0487136
-0.047431
-0.0417105
-0.0407101
-0.0368886
-0.0361799
-0.0343069
-0.0340451
-0.0340451
-0.0343069
-0.0361799
-0.0368887
-0.0407102
-0.0417106
-0.0474311
-0.0487136
-0.0558207
-0.0578339
-0.065124
-0.0688821
-0.0748285
-0.0813087
-0.0853233
-0.0940606
-0.0977013
-0.106108
-0.111848
-0.117987
-0.125708
-0.133084
-0.141939
-0.156422
-0.172609
-0.18985
-0.210389
-0.214573
-0.203335
-0.177599
-0.132982
-0.0926729
-0.0619304
-0.0389134
-0.0267523
-0.00368276
0.0347274
0.0642595
0.0717512
0.0546776
0.0236585
0.00127911
-0.00515576
-0.00181048
0.00756938
0.0158725
0.0137122
0.00230102
-0.00668369
-0.00439178
-0.002729
-0.00496234
0.000202887
0.010033
0.0156434
0.0122601
0.00384383
-0.00434107
-0.00434861
0.0148394
0.0480116
0.0736251
0.0761477
0.0518561
0.0161609
-0.00711205
-0.0209988
-0.0372266
-0.0603005
-0.101009
-0.146071
-0.176222
-0.192821
-0.189849
-0.176883
-0.163865
-0.147359
-0.136778
-0.13011
-0.125702
-0.123357
-0.123347
-0.121768
-0.11999
-0.119529
-0.113609
-0.113089
-0.105594
-0.103121
-0.097074
-0.0923389
-0.0887268
-0.0829348
-0.0812114
-0.0758518
-0.0751483
-0.0712269
-0.0709647
-0.0689366
-0.0688687
-0.0688687
-0.0689366
-0.0709648
-0.0712269
-0.0751484
-0.0758517
-0.0812115
-0.0829348
-0.0887269
-0.0923391
-0.0970742
-0.103121
-0.105594
-0.11309
-0.11361
-0.119529
-0.119991
-0.121769
-0.123347
-0.123357
-0.125702
-0.13011
-0.136778
-0.147359
-0.163866
-0.176883
-0.18985
-0.192822
-0.176223
-0.146072
-0.101009
-0.0602996
-0.0372261
-0.0209985
-0.00711206
0.0161605
0.0518565
0.0761492
0.0736268
0.0480124
0.0148385
-0.00435008
-0.00434174
0.00384385
0.0122602
0.015644
0.0100337
0.000202821
-0.0049634
-0.0027297
0.000735439
-0.000713443
-0.00233286
0.00431728
0.014738
0.016778
0.00839564
-0.00311087
-0.00665312
0.00773263
0.0369263
0.0672896
0.0829211
0.0690295
0.0341117
0.00525833
-0.0101132
-0.0200796
-0.0369491
-0.0716506
-0.112442
-0.146753
-0.169192
-0.172608
-0.163865
-0.147719
-0.131721
-0.12158
-0.114298
-0.112793
-0.112639
-0.115014
-0.115667
-0.118052
-0.118735
-0.118227
-0.120276
-0.11678
-0.119486
-0.115105
-0.116742
-0.113353
-0.113182
-0.111324
-0.109874
-0.109157
-0.107457
-0.107294
-0.106217
-0.106207
-0.106207
-0.106217
-0.107294
-0.107457
-0.109158
-0.109874
-0.111325
-0.113183
-0.113353
-0.116742
-0.115105
-0.119487
-0.11678
-0.120276
-0.118227
-0.118735
-0.118052
-0.115667
-0.115014
-0.11264
-0.112793
-0.114298
-0.12158
-0.131721
-0.14772
-0.163866
-0.172609
-0.169193
-0.146753
-0.112442
-0.0716505
-0.0369484
-0.0200791
-0.0101134
0.00525791
0.0341118
0.0690305
0.0829226
0.0672907
0.0369265
0.00773174
-0.00665451
-0.00311152
0.00839597
0.0167786
0.0147384
0.0043174
-0.00233308
-0.000713952
0.000735133
0.0053907
0.00511665
-0.0050795
-0.0022246
0.013517
0.0204232
0.0118964
-0.0008958
-0.00661757
0.00128884
0.0245579
0.0590837
0.0861157
0.0799143
0.0465559
0.0163414
-0.00064299
-0.00890614
-0.0193063
-0.0466853
-0.0860016
-0.124066
-0.150362
-0.156422
-0.147359
-0.131721
-0.115829
-0.102143
-0.0944651
-0.0916319
-0.0908249
-0.0944214
-0.0967588
-0.101989
-0.104968
-0.109248
-0.112406
-0.114255
-0.117805
-0.117191
-0.120728
-0.1188
-0.12159
-0.11958
-0.121272
-0.119822
-0.120591
-0.119801
-0.120043
-0.119801
-0.119801
-0.120043
-0.119801
-0.120591
-0.119822
-0.121272
-0.11958
-0.12159
-0.1188
-0.120728
-0.117192
-0.117805
-0.114256
-0.112406
-0.109248
-0.104968
-0.101989
-0.0967588
-0.0944214
-0.0908248
-0.091632
-0.094465
-0.102143
-0.115829
-0.13172
-0.147359
-0.156422
-0.150363
-0.124067
-0.0860014
-0.0466848
-0.0193057
-0.00890581
-0.00064316
0.0163407
0.0465558
0.0799156
0.0861175
0.0590844
0.0245574
0.00128781
-0.00661867
-0.000896332
0.0118968
0.0204242
0.0135174
-0.0022252
-0.00508003
0.0051169
0.005391
0.0101006
0.0110868
-0.00741264
-0.00820365
0.0120009
0.0226994
0.0143726
0.00161359
-0.00504835
-0.00252802
0.0139825
0.0481309
0.0826195
0.0865044
0.0598579
0.0281817
0.00539516
-0.00310678
-0.00791511
-0.0297029
-0.0655188
-0.103194
-0.131987
-0.141938
-0.136778
-0.12158
-0.102143
-0.0861897
-0.0760116
-0.0699962
-0.0691197
-0.071724
-0.074217
-0.0798021
-0.0834007
-0.088357
-0.092282
-0.095769
-0.0994658
-0.101629
-0.104845
-0.105966
-0.10861
-0.109031
-0.111032
-0.111098
-0.112416
-0.112373
-0.113018
-0.112993
-0.112993
-0.113018
-0.112373
-0.112416
-0.111098
-0.111032
-0.109031
-0.10861
-0.105966
-0.104845
-0.101629
-0.099466
-0.0957691
-0.0922822
-0.0883571
-0.0834008
-0.0798022
-0.074217
-0.0717239
-0.0691196
-0.069996
-0.0760115
-0.0861895
-0.102143
-0.12158
-0.136778