/*--------------------------------*- C++ -*----------------------------------*\
  =========                 |
  \\      /  F ield         | OpenFOAM: The Open Source CFD Toolbox
   \\    /   O peration     | Website:  https://openfoam.org
    \\  /    A nd           | Version:  dev
     \\/     M anipulation  |
\*---------------------------------------------------------------------------*/
FoamFile
{
    format      ascii;
    class       volScalarField;
    location    "40";
    object      h;
}
// * * * * * * * * * * * * * * * * * * * * * * * * * * * * * * * * * * * * * //

dimensions      [0 1 0 0 0 0 0];

internalField   nonuniform List<scalar> 
10000
(
-0.00114528
-0.00153037
0.000440915
0.00167241
0.000814461
-0.00113418
-0.0016834
0.000568669
0.00101842
-0.0023058
-0.00200528
0.00210049
0.00212745
-0.000101638
-0.000345147
-0.000406878
-0.0011094
-0.00253123
-0.00259559
0.000427053
0.00209318
-0.000125221
-0.00374729
-0.00643951
-0.00721174
-0.00614048
-0.003556
0.000720516
0.00575583
0.00913612
0.0104745
0.0101726
0.00994247
0.0105235
0.0105394
0.00911685
0.0048347
-0.00103534
-0.00744134
-0.0124203
-0.0152254
-0.0157596
-0.0144954
-0.0123984
-0.00994914
-0.00784847
-0.00608661
-0.00491187
-0.00412524
-0.0037791
-0.00377912
-0.00412528
-0.00491194
-0.00608672
-0.00784862
-0.00994933
-0.0123986
-0.0144957
-0.01576
-0.0152259
-0.0124207
-0.00744179
-0.00103575
0.00483432
0.00911656
0.0105392
0.0105234
0.00994247
0.0101728
0.0104749
0.00913659
0.00575633
0.000720872
-0.00355579
-0.00614042
-0.0072119
-0.00643975
-0.00374749
-0.000125237
0.00209338
0.000427048
-0.0025959
-0.0025314
-0.00110946
-0.000406856
-0.000345088
-0.000101702
0.00212783
0.00210102
-0.00200564
-0.00230623
0.00101876
0.000568806
-0.00168388
-0.0011345
0.000814736
0.001673
0.000441075
-0.00153092
-0.0011457
-0.00153037
-0.00215595
0.000263461
0.00219997
0.00131667
-0.00250231
-0.00358443
0.00209127
0.00357437
-0.00391138
-0.00484947
0.0022889
0.00301382
-0.00105158
-0.00234064
-0.00179362
-0.00228449
-0.00517414
-0.00414568
0.00349562
0.00744104
0.0020618
-0.00823892
-0.0175842
-0.0228479
-0.0234734
-0.0188597
-0.00791544
0.00634021
0.0178592
0.0247049
0.0277915
0.0317404
0.0374737
0.041802
0.0409092
0.0314762
0.0162837
-0.00133064
-0.0156713
-0.0246134
-0.0271915
-0.0251117
-0.0203747
-0.0148713
-0.00998004
-0.00610892
-0.00352525
-0.00191843
-0.00120849
-0.0012085
-0.00191843
-0.00352527
-0.00610893
-0.00998008
-0.0148713
-0.0203748
-0.0251117
-0.0271916
-0.0246134
-0.0156713
-0.00133062
0.0162838
0.0314764
0.0409094
0.0418021
0.0374738
0.0317404
0.0277915
0.0247051
0.0178594
0.00634027
-0.00791568
-0.0188602
-0.0234739
-0.0228484
-0.0175846
-0.0082389
0.00206235
0.00744196
0.003496
-0.0041462
-0.00517455
-0.0022845
-0.00179359
-0.0023407
-0.00105174
0.00301432
0.0022895
-0.00485029
-0.00391202
0.00357539
0.00209178
-0.00358537
-0.00250292
0.00131714
0.00220074
0.000263595
-0.0021567
-0.00153092
0.000440915
0.000263461
-0.00104798
-0.000726454
0.000300483
-0.00167866
-0.00197444
0.00295977
0.00329397
-0.00361398
-0.00602785
-0.00119584
0.00243142
8.66687e-06
-0.00418778
-0.00402226
-0.00347695
-0.00529464
-0.00242788
0.00488305
0.00813049
0.00198471
-0.011749
-0.0262609
-0.0367692
-0.0406607
-0.0345938
-0.0171707
0.00582022
0.0264045
0.0396862
0.0474041
0.0557161
0.0652066
0.0729189
0.0713832
0.0576432
0.0338322
0.00632061
-0.0170137
-0.0322591
-0.0375045
-0.0356006
-0.0288576
-0.0210565
-0.0135788
-0.00793785
-0.00391882
-0.0016027
-0.000497089
-0.00049709
-0.00160268
-0.0039188
-0.00793782
-0.0135787
-0.0210564
-0.0288575
-0.0356004
-0.0375043
-0.0322588
-0.0170133
0.00632116
0.033833
0.0576441
0.0713841
0.0729197
0.065207
0.0557162
0.0474041
0.0396862
0.0264043
0.00581967
-0.0171717
-0.0345951
-0.0406619
-0.03677
-0.0262613
-0.0117487
0.00198577
0.00813177
0.00488384
-0.00242808
-0.00529518
-0.00347703
-0.00402239
-0.004188
9.0152e-06
0.00243197
-0.00119597
-0.00602885
-0.00361454
0.00329488
0.00296062
-0.0019748
-0.00167896
0.000300669
-0.000726584
-0.00104823
0.000263598
0.000441072
0.00167241
0.00219997
-0.000726454
-0.00210289
-0.00110666
-0.000452889
0.000344698
0.000359627
-0.00156921
-0.00280815
-0.0033292
-0.00173082
0.00259109
0.00113721
-0.0051077
-0.00667226
-0.00548065
-0.00388307
-0.00148626
-8.40455e-05
3.09978e-05
-0.00484505
-0.0165849
-0.0312397
-0.0437039
-0.0480638
-0.0384256
-0.0146612
0.0155364
0.0428239
0.0595535
0.0686665
0.075497
0.0824729
0.0870413
0.0807362
0.0614262
0.0295743
-0.0055549
-0.0363461
-0.0559522
-0.0631069
-0.060023
-0.0504251
-0.0388171
-0.0275231
-0.0186589
-0.0121426
-0.00825214
-0.0063459
-0.00634591
-0.00825219
-0.0121427
-0.018659
-0.0275233
-0.0388173
-0.0504253
-0.0600234
-0.0631073
-0.0559527
-0.0363466
-0.00555519
0.0295742
0.0614264
0.0807366
0.0870416
0.0824731
0.0754971
0.0686668
0.059554
0.0428246
0.0155366
-0.0146616
-0.0384266
-0.0480651
-0.0437047
-0.0312401
-0.0165847
-0.00484442
3.16688e-05
-8.35177e-05
-0.00148598
-0.00388334
-0.00548104
-0.00667271
-0.00510803
0.0011379
0.00259194
-0.00173087
-0.0033296
-0.00280863
-0.00156942
0.000360097
0.000345102
-0.000452912
-0.00110691
-0.00210339
-0.000726578
0.00220074
0.001673
0.000814461
0.00131667
0.000300483
-0.00110666
-0.00158455
0.000252279
0.000484974
-0.00437296
-0.00528822
0.00112101
0.00255229
-0.0014943
-0.0025607
-0.00353251
-0.00627891
-0.00728134
-0.00424048
0.000611779
-0.000372142
-0.00577693
-0.00906242
-0.0121618
-0.0199058
-0.033907
-0.0487658
-0.0548258
-0.0443769
-0.0180694
0.0171524
0.050556
0.0737384
0.0881362
0.0963482
0.103286
0.10545
0.097479
0.0756318
0.0405146
0.00115977
-0.0349891
-0.0587319
-0.0694131
-0.0670669
-0.057362
-0.0437824
-0.0307487
-0.0197186
-0.0118456
-0.00682919
-0.00448146
-0.00448146
-0.00682921
-0.0118456
-0.0197186
-0.0307487
-0.0437824
-0.0573621
-0.0670671
-0.0694133
-0.0587321
-0.0349893
0.00115974
0.0405148
0.0756323
0.0974796
0.105451
0.103286
0.0963483
0.0881365
0.0737387
0.0505565
0.0171524
-0.0180701
-0.0443783
-0.0548273
-0.0487667
-0.0339071
-0.0199054
-0.0121615
-0.00906227
-0.00577672
-0.000371404
0.000612437
-0.00424062
-0.00728185
-0.00627937
-0.00353269
-0.00256069
-0.00149402
0.00255328
0.00112142
-0.00528925
-0.00437354
0.000485538
0.000252519
-0.00158495
-0.00110691
0.000300673
0.00131714
0.000814737
-0.00113418
-0.00250231
-0.00167866
-0.000452889
0.000252279
0.00230462
0.000593103
-0.00653782
-0.00620451
0.00234206
0.00368007
-0.00332197
-0.00822329
-0.00733735
-0.0050301
-0.00450641
-0.0011418
0.00251003
-0.00203432
-0.0110403
-0.0171009
-0.0196084
-0.0251827
-0.0385432
-0.0537169
-0.0596127
-0.0485278
-0.020842
0.0183779
0.0580115
0.0902953
0.111371
0.122028
0.127143
0.124592
0.113674
0.0887476
0.0523875
0.00955917
-0.0304471
-0.059488
-0.0746424
-0.0754516
-0.0672465
-0.0534108
-0.0395214
-0.0269602
-0.0179746
-0.0119437
-0.00918227
-0.00918228
-0.0119437
-0.0179746
-0.0269603
-0.0395214
-0.0534108
-0.0672466
-0.0754517
-0.0746425
-0.059488
-0.030447
0.00955948
0.0523882
0.0887485
0.113676
0.124593
0.127144
0.122029
0.111372
0.0902959
0.0580117
0.0183774
-0.0208434
-0.0485298
-0.0596149
-0.0537184
-0.0385435
-0.0251822
-0.019608
-0.0171009
-0.0110401
-0.00203351
0.0025112
-0.00114133
-0.00450652
-0.00503034
-0.00733806
-0.00822414
-0.00332188
0.00368145
0.00234293
-0.00620573
-0.00653909
0.000593666
0.0023056
0.000252533
-0.000452907
-0.00167897
-0.00250293
-0.0011345
-0.0016834
-0.00358443
-0.00197444
0.000344698
0.000484974
0.000593103
-0.00092105
-0.0044696
-0.0036427
0.000202868
0.000139271
-0.00440275
-0.00887025
-0.00738753
-0.00281688
-0.00160458
-0.0014997
-0.00270406
-0.00875641
-0.0179839
-0.0252299
-0.0282073
-0.0323342
-0.0409967
-0.0499959
-0.0508126
-0.0383015
-0.0117237
0.0262611
0.0674059
0.104307
0.127694
0.137234
0.135241
0.125
0.108275
0.0812802
0.0461122
0.00374432
-0.0359861
-0.0676716
-0.0846947
-0.0879012
-0.0795831
-0.0650274
-0.0487187
-0.0339042
-0.0225119
-0.0149137
-0.0112398
-0.0112399
-0.0149137
-0.022512
-0.0339043
-0.0487188
-0.0650276
-0.0795834
-0.0879015
-0.0846951
-0.0676721
-0.0359866
0.00374396
0.0461121
0.0812804
0.108275
0.125
0.135242
0.137235
0.127695
0.104308
0.0674063
0.026261
-0.0117245
-0.038303
-0.0508143
-0.0499973
-0.0409973
-0.0323341
-0.0282071
-0.02523
-0.017984
-0.00875604
-0.00270328
-0.00149897
-0.00160413
-0.00281681
-0.00738816
-0.008871
-0.00440278
0.000140023
0.00020358
-0.00364315
-0.00447054
-0.000921073
0.000593678
0.000485544
0.000345095
-0.0019748
-0.00358538
-0.00168388
0.000568669
0.00209127
0.00295977
0.000359627
-0.00437296
-0.00653782
-0.0044696
0.000713504
0.00337639
-0.000466275
-0.00448318
-0.00678859
-0.00981541
-0.00741782
-0.000919472
0.000400584
-0.00374529
-0.00952302
-0.0157443
-0.0233564
-0.0312131
-0.0368746
-0.0402828
-0.042351
-0.0424657
-0.0371734
-0.0249087
-0.00267702
0.0303109
0.0710656
0.111487
0.139067
0.149776
0.143442
0.12825
0.107297
0.0814851
0.0494508
0.0111353
-0.0271809
-0.0603976
-0.0806526
-0.0879286
-0.082023
-0.0690043
-0.0521407
-0.0365368
-0.0235926
-0.0150425
-0.010675
-0.010675
-0.0150425
-0.0235926
-0.0365367
-0.0521406
-0.0690043
-0.082023
-0.0879287
-0.0806527
-0.0603979
-0.0271811
0.0111351
0.0494508
0.0814853
0.107297
0.128251
0.143443
0.149777
0.139068
0.111488
0.0710656
0.0303105
-0.00267774
-0.0249097
-0.0371745
-0.0424668
-0.0423518
-0.0402832
-0.0368747
-0.0312132
-0.0233565
-0.0157444
-0.00952272
-0.00374443
0.000401777
-0.000918855
-0.00741846
-0.00981643
-0.0067892
-0.0044834
-0.000465422
0.00337792
0.00071396
-0.00447054
-0.00653909
-0.00437356
0.000360089
0.00296063
0.00209179
0.000568809
0.00101842
0.00357437
0.00329397
-0.00156921
-0.00528822
-0.00620451
-0.0036427
0.00337639
0.00360886
-0.00588476
-0.00999889
-0.00802229
-0.00699486
-0.00310089
0.000928759
-0.00125937
-0.00843917
-0.0160289
-0.0206439
-0.0262595
-0.0367945
-0.0474078
-0.0510687
-0.0466524
-0.036393
-0.023343
-0.00916567
0.010639
0.0397787
0.0800214
0.122874
0.154491
0.165901
0.155802
0.134247
0.107604
0.0807333
0.0502531
0.015515
-0.0221614
-0.0569098
-0.0820681
-0.0944062
-0.0932216
-0.0828308
-0.0669906
-0.050994
-0.037092
-0.0275649
-0.0226114
-0.0226114
-0.0275649
-0.0370921
-0.0509941
-0.0669907
-0.0828309
-0.0932218
-0.0944064
-0.0820684
-0.0569101
-0.0221616
0.0155149
0.0502531
0.0807336
0.107604
0.134248
0.155803
0.165903
0.154493
0.122875
0.0800217
0.0397783
0.0106383
-0.0091665
-0.023344
-0.0363944
-0.0466541
-0.0510702
-0.0474086
-0.0367943
-0.026259
-0.0206439
-0.016029
-0.00843865
-0.00125814
0.000930122
-0.00310051
-0.00699542
-0.00802321
-0.0100003
-0.00588505
0.00361076
0.00337792
-0.00364315
-0.00620573
-0.00528925
-0.00156941
0.00329489
0.0035754
0.00101876
-0.0023058
-0.00391138
-0.00361398
-0.00280815
0.00112101
0.00234206
0.000202868
-0.000466275
-0.00588476
-0.0128398
-0.0101471
-0.00376102
3.06322e-05
0.00101297
-0.00317892
-0.00966854
-0.016945
-0.0228027
-0.0242116
-0.0290566
-0.0420135
-0.0544705
-0.055941
-0.0438751
-0.023507
-0.00380143
0.0120461
0.0282985
0.0507673
0.0852207
0.124556
0.15595
0.166788
0.154316
0.128253
0.0981163
0.0714836
0.0451039
0.0166209
-0.016505
-0.0494848
-0.0766944
-0.0923822
-0.0950457
-0.0867783
-0.0718033
-0.0550373
-0.0399699
-0.0291233
-0.0234588
-0.0234588
-0.0291233
-0.03997
-0.0550374
-0.0718034
-0.0867784
-0.0950458
-0.0923824
-0.0766947
-0.0494851
-0.0165054
0.0166206
0.0451036
0.0714835
0.0981164
0.128254
0.154317
0.166789
0.155951
0.124557
0.0852211
0.050767
0.0282982
0.0120459
-0.00380181
-0.023508
-0.0438772
-0.0559433
-0.0544721
-0.0420135
-0.0290555
-0.024211
-0.022803
-0.0169453
-0.00966843
-0.00317793
0.00101447
3.15476e-05
-0.00376093
-0.0101483
-0.0128416
-0.00588506
-0.000465429
0.000203582
0.00234293
0.00112143
-0.00280863
-0.00361455
-0.00391203
-0.00230623
-0.00200528
-0.00484947
-0.00602785
-0.0033292
0.00255229
0.00368007
0.000139271
-0.00448318
-0.00999889
-0.0101471
-0.00547509
-0.00211491
0.000706693
-0.00213015
-0.0107566
-0.0171937
-0.0233704
-0.0279576
-0.0295816
-0.0357805
-0.0472315
-0.0555869
-0.0511587
-0.0317821
-0.00540715
0.0170586
0.032712
0.0441826
0.0586852
0.0843065
0.116857
0.147084
0.159459
0.149543
0.123935
0.0937707
0.0689255
0.0471123
0.0253487
-0.0024586
-0.0329708
-0.0619879
-0.0817522
-0.0895521
-0.0852097
-0.0727035
-0.0565959
-0.0412787
-0.0297235
-0.0235976
-0.0235976
-0.0297235
-0.0412786
-0.0565959
-0.0727034
-0.0852096
-0.089552
-0.0817521
-0.0619879
-0.0329707
-0.00245863
0.0253487
0.0471122
0.0689254
0.0937707
0.123935
0.149544
0.15946
0.147085
0.116857
0.0843065
0.0586847
0.0441824
0.0327121
0.0170589
-0.00540731
-0.0317835
-0.051161
-0.055589
-0.0472323
-0.0357799
-0.0295807
-0.0279576
-0.0233708
-0.0171941
-0.0107564
-0.00212874
0.000708025
-0.00211438
-0.00547514
-0.0101483
-0.0100003
-0.00448339
0.00014003
0.00368146
0.00255328
-0.0033296
-0.00602886
-0.0048503
-0.00200565
0.00210049
0.0022889
-0.00119584
-0.00173082
-0.0014943
-0.00332197
-0.00440275
-0.00678859
-0.00802229
-0.00376102
-0.00211491
-0.00277109
-0.00206059
-0.00811299
-0.0162177
-0.0204952
-0.0265389
-0.0327663
-0.0390047
-0.0469536
-0.053982
-0.0553467
-0.0439374
-0.0188862
0.011701
0.0381274
0.0573162
0.0683629
0.0780116
0.0934934
0.115751
0.140356
0.151237
0.143239
0.116986
0.0855356
0.0588855
0.0383449
0.0204304
-0.00316765
-0.0310263
-0.0613029
-0.084448
-0.0974443
-0.0970786
-0.0875249
-0.0721924
-0.056818
-0.0444752
-0.0378841
-0.0378841
-0.0444752
-0.0568181
-0.0721925
-0.087525
-0.0970787
-0.0974445
-0.0844482
-0.0613031
-0.0310266
-0.003168
0.02043
0.0383444
0.0588851
0.0855353
0.116986
0.14324
0.151239
0.140357
0.115752
0.0934941
0.078012
0.0683633
0.0573169
0.038128
0.0117011
-0.0188872
-0.0439397
-0.0553494
-0.0539841
-0.0469544
-0.0390042
-0.0327658
-0.0265387
-0.0204953
-0.016218
-0.00811221
-0.0020593
-0.00277052
-0.00211437
-0.00376093
-0.00802321
-0.0067892
-0.00440278
-0.00332188
-0.00149403
-0.00173087
-0.00119596
0.00228951
0.00210102
0.00212745
0.00301382
0.00243142
0.00259109
-0.0025607
-0.00822329
-0.00887025
-0.00981541
-0.00699486
3.06322e-05
0.000706693
-0.00206059
-0.00733954
-0.0174062
-0.0223027
-0.0237817
-0.0290666
-0.0372823
-0.047442
-0.0535946
-0.0534159
-0.0472415
-0.0314106
-0.00519276
0.0256274
0.0543463
0.0767992
0.0886354
0.0945436
0.0990694
0.110119
0.127083
0.137699
0.134463
0.111755
0.082664
0.0550957
0.0364829
0.0214597
0.00321182
-0.02139
-0.051039
-0.0770135
-0.0947909
-0.0991099
-0.0933037
-0.0797199
-0.0650054
-0.0523563
-0.045526
-0.045526
-0.0523563
-0.0650055
-0.0797199
-0.0933038
-0.09911
-0.0947911
-0.0770137
-0.0510393
-0.0213903
0.00321147
0.0214593
0.0364824
0.0550951
0.0826637
0.111755
0.134464
0.1377
0.127084
0.110121
0.0990706
0.0945448
0.0886365
0.0768002
0.0543469
0.0256274
-0.0051936
-0.0314126
-0.0472441
-0.0534185
-0.0535964
-0.0474423
-0.0372814
-0.0290657
-0.0237813
-0.0223033
-0.0174068
-0.00733875
-0.0020593
0.000708027
3.15493e-05
-0.00699542
-0.00981643
-0.00887101
-0.00822414
-0.00256069
0.00259194
0.00243198
0.00301433
0.00212783
-0.000101638
-0.00105158
8.66687e-06
0.00113721
-0.00353251
-0.00733735
-0.00738753
-0.00741782
-0.00310089
0.00101297
-0.00213015
-0.00811299
-0.0174062
-0.0255805
-0.0265637
-0.0282237
-0.034212
-0.0447303
-0.0543971
-0.0520431
-0.0404417
-0.0258951
-0.00851957
0.0135469
0.0388902
0.0648239
0.0858077
0.0966024
0.0983567
0.0933983
0.0951805
0.105709
0.119714
0.124886
0.111891
0.0889671
0.062984
0.0461918
0.0328737
0.0195752
-0.00233571
-0.0304018
-0.0596288
-0.0820171
-0.0925715
-0.0914415
-0.08135
-0.0681608
-0.0561512
-0.0493707
-0.0493707
-0.0561512
-0.0681608
-0.0813499
-0.0914415
-0.0925714
-0.082017
-0.0596287
-0.0304017
-0.00233553
0.0195754
0.0328738
0.0461918
0.0629839
0.0889673
0.111891
0.124887
0.119715
0.10571
0.0951811
0.093399
0.0983577
0.0966033
0.0858084
0.0648242
0.0388901
0.0135466
-0.00852029
-0.0258964
-0.0404437
-0.0520455
-0.0543989
-0.0447303
-0.034211
-0.0282227
-0.0265636
-0.0255816
-0.0174068
-0.00811221
-0.00212874
0.00101447
-0.00310052
-0.00741847
-0.00738816
-0.00733805
-0.00353269
0.0011379
9.01694e-06
-0.00105174
-0.000101706
-0.000345147
-0.00234064
-0.00418778
-0.0051077
-0.00627891
-0.0050301
-0.00281688
-0.000919472
0.000928759
-0.00317892
-0.0107566
-0.0162177
-0.0223027
-0.0265637
-0.0299998
-0.0364447
-0.0448399
-0.0563786
-0.0605694
-0.0474619
-0.0244063
-0.00130055
0.0179637
0.0372548
0.0593303
0.0831275
0.101606
0.110132
0.105391
0.0898471
0.078803
0.0782452
0.0908047
0.100315
0.0966206
0.0790689
0.0556186
0.0393167
0.0278422
0.0195574
0.00253633
-0.0210264
-0.0503052
-0.0744012
-0.0894506
-0.0916082
-0.0845745
-0.0723812
-0.0609335
-0.0540366
-0.0540367
-0.0609334
-0.0723812
-0.0845744
-0.0916082
-0.0894505
-0.0744012
-0.0503052
-0.0210264
0.00253631
0.0195573
0.027842
0.0393165
0.0556182
0.0790686
0.0966205
0.100315
0.0908046
0.078245
0.0788032
0.0898478
0.105392
0.110133
0.101607
0.0831284
0.0593307
0.0372551
0.017964
-0.00130072
-0.0244075
-0.0474646
-0.0605728
-0.0563807
-0.04484
-0.0364438
-0.0299988
-0.0265636
-0.0223033
-0.016218
-0.0107564
-0.00317793
0.000930123
-0.000918853
-0.00281681
-0.00503033
-0.00627937
-0.00510803
-0.004188
-0.00234071
-0.00034509
-0.000406878
-0.00179362
-0.00402226
-0.00667226
-0.00728134
-0.00450641
-0.00160458
0.000400584
-0.00125937
-0.00966854
-0.0171937
-0.0204952
-0.0237817
-0.0282237
-0.0364447
-0.0453733
-0.0524406
-0.0590751
-0.0563752
-0.0382485
-0.00979609
0.0172455
0.0369868
0.0551417
0.0762634
0.0992644
0.116505
0.123773
0.114685
0.092836
0.0707983
0.0602604
0.0688814
0.0808499
0.0855531
0.0726605
0.0517601
0.0330404
0.0213923
0.0144846
0.00143943
-0.0188184
-0.047571
-0.0737302
-0.0934135
-0.0998631
-0.0968198
-0.0866489
-0.0764505
-0.0698188
-0.0698188
-0.0764504
-0.0866489
-0.0968198
-0.0998631
-0.0934136
-0.0737302
-0.0475712
-0.0188185
0.00143918
0.0144843
0.0213918
0.0330398
0.0517595
0.07266
0.0855528
0.0808494
0.0688809
0.0602598
0.0707984
0.0928371
0.114687
0.123775
0.116507
0.0992659
0.0762641
0.0551421
0.0369871
0.0172456
-0.00979699
-0.0382509
-0.0563787
-0.0590782
-0.052442
-0.0453732
-0.0364438
-0.0282227
-0.0237813
-0.0204953
-0.0171941
-0.00966843
-0.00125814
0.000401779
-0.00160412
-0.00450653
-0.00728185
-0.00667272
-0.00402239
-0.00179359
-0.000406852
-0.0011094
-0.00228449
-0.00347695
-0.00548065
-0.00424048
-0.0011418
-0.0014997
-0.00374529
-0.00843917
-0.016945
-0.0233704
-0.0265389
-0.0290666
-0.034212
-0.0448399
-0.0524406
-0.0515666
-0.0465381
-0.0367636
-0.0174486
0.0103406
0.0351769
0.0516124
0.0644952
0.0804426
0.0991339
0.113725
0.120409
0.112182
0.0918196
0.0667972
0.0531514
0.0597641
0.0765007
0.0898903
0.0838713
0.0661448
0.0440566
0.0301064
0.0207318
0.00973446
-0.00978691
-0.0381984
-0.0680132
-0.0927756
-0.105508
-0.107622
-0.101248
-0.0931776
-0.0874828
-0.0874827
-0.0931776
-0.101248
-0.107622
-0.105508
-0.0927757
-0.0680133
-0.0381985
-0.00978699
0.00973438
0.0207318
0.0301064
0.0440565
0.0661449
0.0838714
0.0898907
0.0765007
0.0597639
0.053151
0.0667973
0.0918206
0.112184
0.120411
0.113727
0.099135
0.080443
0.0644952
0.0516125
0.0351772
0.0103405
-0.0174499
-0.036766
-0.0465407
-0.0515689
-0.052442
-0.04484
-0.034211
-0.0290657
-0.0265387
-0.0233708
-0.0169453
-0.00843865
-0.00374443
-0.00149897
-0.00114133
-0.00424062
-0.00548104
-0.00347703
-0.0022845
-0.00110945
-0.00253123
-0.00517414
-0.00529464
-0.00388307
0.000611779
0.00251003
-0.00270406
-0.00952302
-0.0160289
-0.0228027
-0.0279576
-0.0327663
-0.0372823
-0.0447303
-0.0563786
-0.0590751
-0.0465381
-0.0278827
-0.00986814
0.010431
0.036105
0.0599617
0.0742675
0.0808364
0.0883353
0.0972892
0.103703
0.104578
0.0946521
0.0748897
0.0487323
0.0327277
0.0369959
0.0586246
0.0812038
0.0868794
0.0762322
0.0564361
0.0426619
0.0338286
0.0268827
0.0110238
-0.0138167
-0.0446001
-0.0719747
-0.0900723
-0.0965673
-0.0942516
-0.0882928
-0.0837642
-0.0837641
-0.0882928
-0.0942515
-0.0965672
-0.0900721
-0.0719746
-0.0446
-0.0138166
0.011024
0.0268829
0.0338288
0.0426622
0.0564363
0.0762326
0.0868798
0.081204
0.0586244
0.0369951
0.0327268
0.0487317
0.0748899
0.0946529
0.104579
0.103705
0.0972902
0.0883359
0.0808368
0.0742683
0.0599626
0.0361057
0.0104311
-0.00986888
-0.0278844
-0.0465407
-0.0590782
-0.0563807
-0.0447303
-0.0372814
-0.0327658
-0.0279576
-0.022803
-0.016029
-0.00952272
-0.00270328
0.00251121
0.000612441
-0.00388333
-0.00529518
-0.00517455
-0.0025314
-0.00259559
-0.00414568
-0.00242788
-0.00148626
-0.000372142
-0.00203432
-0.00875641
-0.0157443
-0.0206439
-0.0242116
-0.0295816
-0.0390047
-0.047442
-0.0543971
-0.0605694
-0.0563752
-0.0367636
-0.00986814
0.0123215
0.030782
0.0550541
0.0813389
0.0980028
0.10299
0.103971
0.103781
0.101715
0.095283
0.0819687
0.0611113
0.0329201
0.0117678
0.00975188
0.0301076
0.0574799
0.0725016
0.0686253
0.0520538
0.037852
0.0298792
0.0260801
0.0155201
-0.00463407
-0.0335419
-0.0620214
-0.0837218
-0.0941736
-0.0954939
-0.0917804
-0.0884139
-0.0884139
-0.0917803
-0.0954937
-0.0941734
-0.0837216
-0.0620213
-0.0335417
-0.00463392
0.0155202
0.0260803
0.0298793
0.037852
0.0520538
0.0686253
0.0725016
0.0574796
0.0301066
0.00975041
0.0117663
0.032919
0.061111
0.081969
0.095284
0.101716
0.103783
0.103972
0.102992
0.0980044
0.0813402
0.0550547
0.0307823
0.0123216
-0.00986889
-0.036766
-0.0563787
-0.0605728
-0.0543989
-0.0474423
-0.0390042
-0.0295807
-0.024211
-0.0206439
-0.0157444
-0.00875604
-0.00203351
-0.000371404
-0.00148598
-0.00242809
-0.00414621
-0.0025959
0.000427053
0.00349562
0.00488305
-8.40455e-05
-0.00577693
-0.0110403
-0.0179839
-0.0233564
-0.0262595
-0.0290566
-0.0357805
-0.0469536
-0.0535946
-0.0520431
-0.0474619
-0.0382485
-0.0174486
0.010431
0.030782
0.0442339
0.0633198
0.0883033
0.106858
0.111473
0.1086
0.104299
0.0996812
0.0924126
0.081421
0.0641864
0.0380674
0.013725
0.00398907
0.0183629
0.0448261
0.0640755
0.0637833
0.0471526
0.0292215
0.0176121
0.0129098
0.00440178
-0.0129898
-0.040844
-0.0710904
-0.096854
-0.112229
-0.117983
-0.117387
-0.115584
-0.115584
-0.117387
-0.117983
-0.112229
-0.096854
-0.0710905
-0.0408442
-0.01299
0.00440157
0.0129096
0.0176118
0.0292212
0.0471524
0.0637832
0.0640754
0.0448258
0.0183621
0.00398792
0.013724
0.0380669
0.0641864
0.0814215
0.0924136
0.0996826
0.104301
0.108602
0.111475
0.106859
0.0883043
0.0633199
0.0442337
0.0307822
0.010431
-0.0174499
-0.0382509
-0.0474646
-0.0520456
-0.0535964
-0.0469544
-0.0357799
-0.0290555
-0.026259
-0.0233565
-0.017984
-0.0110402
-0.00577673
-8.35196e-05
0.00488384
0.003496
0.000427056
0.00209318
0.00744104
0.00813049
3.09978e-05
-0.00906242
-0.0171009
-0.0252299
-0.0312131
-0.0367945
-0.0420135
-0.0472315
-0.053982
-0.0534159
-0.0404417
-0.0244063
-0.00979609
0.0103406
0.036105
0.0550541
0.0633198
0.0728908
0.0908492
0.105235
0.105007
0.0959929
0.0866862
0.0808104
0.0759282
0.0709647
0.0621204
0.0444769
0.0232575
0.0111545
0.0219842
0.0485204
0.07334
0.0784272
0.0641184
0.0430762
0.0272342
0.0196363
0.0113306
-0.0045988
-0.0321474
-0.0645781
-0.095146
-0.116309
-0.127642
-0.131056
-0.131385
-0.131385
-0.131056
-0.127642
-0.116309
-0.095146
-0.0645783
-0.0321475
-0.00459894
0.0113305
0.0196361
0.0272341
0.0430762
0.0641185
0.0784275
0.0733404
0.0485205
0.021984
0.011154
0.0232572
0.0444769
0.0621206
0.0709651
0.0759285
0.0808109
0.0866871
0.0959942
0.105009
0.105237
0.0908501
0.0728909
0.0633199
0.0550547
0.0361057
0.0103405
-0.00979697
-0.0244076
-0.0404437
-0.0534185
-0.0539841
-0.0472323
-0.0420135
-0.0367943
-0.0312132
-0.02523
-0.0171009
-0.00906227
3.16735e-05
0.00813177
0.00744197
0.00209339
-0.000125221
0.0020618
0.00198471
-0.00484505
-0.0121618
-0.0196084
-0.0282073
-0.0368746
-0.0474078
-0.0544705
-0.0555869
-0.0553467
-0.0472415
-0.0258951
-0.00130055
0.0172455
0.0351769
0.0599617
0.0813389
0.0883033
0.0908492
0.100303
0.107784
0.101106
0.0833216
0.0656307
0.0549136
0.048713
0.045928
0.0428018
0.0326465
0.0160719
0.00407719
0.0126528
0.0410572
0.0733092
0.0884645
0.0816923
0.0628187
0.0466434
0.0385636
0.0328388
0.0203307
-0.00407101
-0.0365715
-0.0697899
-0.095798
-0.112034
-0.119455
-0.121883
-0.121883
-0.119455
-0.112034
-0.0957979
-0.0697897
-0.0365713
-0.00407084
0.0203309
0.032839
0.0385639
0.0466437
0.0628191
0.0816929
0.0884651
0.0733097
0.0410573
0.0126524
0.00407658
0.0160713
0.0326461
0.0428014
0.0459274
0.0487124
0.0549131
0.0656306
0.0833223
0.101108
0.107786
0.100304
0.0908501
0.0883043
0.0813402
0.0599626
0.0351773
0.0172456
-0.00130073
-0.0258964
-0.0472441
-0.0553494
-0.055589
-0.0544721
-0.0474086
-0.0368747
-0.0282071
-0.019608
-0.0121615
-0.00484441
0.00198578
0.00206236
-0.000125238
-0.00374729
-0.00823892
-0.011749
-0.0165849
-0.0199058
-0.0251827
-0.0323342
-0.0402828
-0.0510687
-0.055941
-0.0511587
-0.0439374
-0.0314106
-0.00851957
0.0179637
0.0369868
0.0516124
0.0742675
0.0980028
0.106858
0.105235
0.107784
0.111592
0.102866
0.0809632
0.0578559
0.0428994
0.0340658
0.0302126
0.0280279
0.0204937
0.0052285
-0.0103851
-0.0079258
0.0170154
0.052354
0.0754834
0.0757759
0.0603174
0.043811
0.0357973
0.0322587
0.0243126
0.00427578
-0.0261009
-0.0602854
-0.0896702
-0.110083
-0.121125
-0.125558
-0.125558
-0.121124
-0.110083
-0.08967
-0.0602853
-0.0261008
0.00427592
0.0243127
0.0322589
0.0357975
0.0438111
0.0603176
0.0757763
0.0754838
0.0523541
0.0170151
-0.00792656
-0.010386
0.00522776
0.0204931
0.0280272
0.0302117
0.0340648
0.0428986
0.0578556
0.0809638
0.102868
0.111594
0.107786
0.105237
0.106859
0.0980044
0.0742683
0.0516125
0.0369871
0.017964
-0.00852029
-0.0314125
-0.0439397
-0.051161
-0.0559434
-0.0510702
-0.0402832
-0.032334
-0.0251822
-0.0199054
-0.0165847
-0.0117487
-0.0082389
-0.00374749
-0.00643951
-0.0175842
-0.0262609
-0.0312397
-0.033907
-0.0385432
-0.0409967
-0.042351
-0.0466524
-0.0438751
-0.0317821
-0.0188862
-0.00519276
0.0135469
0.0372548
0.0551417
0.0644952
0.0808364
0.10299
0.111473
0.105007
0.101106
0.102866
0.0972187
0.0784635
0.0565273
0.0429427
0.0355526
0.0330385
0.0318821
0.0262752
0.0111513
-0.00949106
-0.0162348
-0.000284051
0.0326045
0.0583536
0.0630403
0.0484062
0.0295851
0.0186678
0.0145673
0.00907938
-0.00782141
-0.0362308
-0.071496
-0.104092
-0.128988
-0.143831
-0.150519
-0.150519
-0.143831
-0.128988
-0.104092
-0.071496
-0.0362308
-0.0078215
0.00907927
0.0145671
0.0186676
0.0295849
0.0484061
0.0630402
0.0583535
0.0326042
-0.000284738
-0.0162357
-0.00949186
0.0111509
0.026275
0.0318819
0.0330381
0.035552
0.0429422
0.0565271
0.0784641
0.09722
0.102868
0.101108
0.105009
0.111475
0.102992
0.0808369
0.0644952
0.055142
0.0372551
0.0135467
-0.0051936
-0.0188872
-0.0317835
-0.0438771
-0.0466541
-0.0423518
-0.0409973
-0.0385435
-0.0339071
-0.0312401
-0.0262613
-0.0175846
-0.00643976
-0.00721174
-0.0228479
-0.0367692
-0.0437039
-0.0487658
-0.0537169
-0.0499959
-0.0424657
-0.036393
-0.023507
-0.00540715
0.011701
0.0256274
0.0388902
0.0593303
0.0762634
0.0804426
0.0883353
0.103971
0.1086
0.0959929
0.0833216
0.0809632
0.0784635
0.0641732
0.0455569
0.0352645
0.0317662
0.0338946
0.0370533
0.0373833
0.0273596
0.00755294
-0.00398308
0.00538129
0.0359715
0.0643198
0.0737723
0.0602807
0.0388479
0.0229269
0.0157822
0.00963315
-0.00609937
-0.0343456
-0.0715927
-0.108526
-0.138698
-0.1582
-0.16756
-0.16756
-0.1582
-0.138698
-0.108526
-0.0715927
-0.0343457
-0.00609947
0.00963304
0.0157821
0.0229268
0.0388478
0.0602808
0.0737725
0.06432
0.0359715
0.00538098
-0.00398347
0.0075527
0.0273598
0.0373835
0.0370534
0.0338944
0.0317657
0.0352639
0.0455564
0.0641733
0.0784641
0.0809638
0.0833223
0.0959942
0.108602
0.103972
0.0883359
0.080443
0.0762641
0.0593307
0.0388901
0.0256274
0.0117011
-0.00540731
-0.023508
-0.0363944
-0.0424668
-0.0499973
-0.0537184
-0.0487667
-0.0437047
-0.03677
-0.0228484
-0.00721191
-0.00614048
-0.0234734
-0.0406607
-0.0480638
-0.0548258
-0.0596127
-0.0508126
-0.0371734
-0.023343
-0.00380143
0.0170586
0.0381274
0.0543463
0.0648239
0.0831275
0.0992644
0.0991339
0.0972892
0.103781
0.104299
0.0866862
0.0656307
0.0578559
0.0565273
0.0455569
0.0291017
0.0200281
0.0189322
0.0248314
0.0315757
0.0380021
0.0342338
0.018192
0.00490804
0.00953097
0.038724
0.0706013
0.0871097
0.0779521
0.0570206
0.038323
0.0293682
0.0235472
0.0101095
-0.0164364
-0.054086
-0.0939975
-0.128545
-0.152225
-0.164073
-0.164073
-0.152225
-0.128545
-0.0939975
-0.054086
-0.0164364
0.0101094
0.0235472
0.0293682
0.0383231
0.0570207
0.0779524
0.0871101
0.0706017
0.0387241
0.00953085
0.00490796
0.0181921
0.0342342
0.0380025
0.0315758
0.0248312
0.0189315
0.0200273
0.0291008
0.0455564
0.0565271
0.0578556
0.0656306
0.086687
0.104301
0.103783
0.0972902
0.099135
0.0992658
0.0831284
0.0648242
0.0543469
0.038128
0.0170589
-0.0038018
-0.023344
-0.0371745
-0.0508143
-0.0596149
-0.0548273
-0.0480651
-0.0406619
-0.0234739
-0.00614043
-0.003556
-0.0188597
-0.0345938
-0.0384256
-0.0443769
-0.0485278
-0.0383015
-0.0249087
-0.00916567
0.0120461
0.032712
0.0573162
0.0767992
0.0858077
0.101606
0.116505
0.113725
0.103703
0.101715
0.0996812
0.0808104
0.0549136
0.0428994
0.0429427
0.0352645
0.0200281
0.00912803
0.00649477
0.0116218
0.0173756
0.0257406
0.0250061
0.0123594
-0.00245378
-0.00174315
0.025885
0.0616998
0.0871402
0.0852255
0.0685228
0.0495345
0.0409162
0.0365034
0.0269903
0.00363034
-0.03249
-0.0739095
-0.11161
-0.138839
-0.152857
-0.152857
-0.138838
-0.11161
-0.0739093
-0.0324898
0.00363051
0.0269905
0.0365036
0.0409164
0.0495347
0.0685232
0.0852259
0.0871407
0.0617
0.025885
-0.0017435
-0.00245408
0.0123592
0.0250062
0.0257407
0.0173753
0.0116214
0.00649397
0.00912717
0.0200273
0.0352639
0.0429421
0.0428986
0.0549131
0.0808109
0.0996826
0.101716
0.103705
0.113727
0.116507
0.101607
0.0858084
0.0768002
0.0573169
0.0327122
0.0120459
-0.00916651
-0.0249097
-0.038303
-0.0485299
-0.0443783
-0.0384267
-0.0345951
-0.0188602
-0.0035558
0.000720516
-0.00791544
-0.0171707
-0.0146612
-0.0180694
-0.020842
-0.0117237
-0.00267702
0.010639
0.0282985
0.0441826
0.0683629
0.0886354
0.0966024
0.110132
0.123773
0.120409
0.104578
0.095283
0.0924126
0.0759282
0.048713
0.0340658
0.0355526
0.0317662
0.0189322
0.00649477
0.00270084
0.00695705
0.0116722
0.0207952
0.0215702
0.011341
-0.00658644
-0.0119288
0.00945034
0.0446699
0.0744903
0.0772557
0.062665
0.0415244
0.0310669
0.0257993
0.0187493
-0.00235205
-0.0368572
-0.0796585
-0.120094