/*--------------------------------*- C++ -*----------------------------------*\
  =========                 |
  \\      /  F ield         | OpenFOAM: The Open Source CFD Toolbox
   \\    /   O peration     | Website:  https://openfoam.org
    \\  /    A nd           | Version:  dev
     \\/     M anipulation  |
\*---------------------------------------------------------------------------*/
FoamFile
{
    format      ascii;
    class       volScalarField;
    location    "40";
    object      h_0;
}
// * * * * * * * * * * * * * * * * * * * * * * * * * * * * * * * * * * * * * //

dimensions      [0 1 0 0 0 0 0];

internalField   nonuniform List<scalar> 
10000
(
-0.00113605
-0.00153758
0.000409315
0.00166151
0.000826797
-0.0011043
-0.00164838
0.000561932
0.000981238
-0.00233008
-0.00201183
0.0021151
0.00212958
-0.000122427
-0.000323186
-0.00037549
-0.00112722
-0.00253152
-0.00254846
0.000472856
0.00209001
-0.000197101
-0.00384681
-0.00652397
-0.00727627
-0.00617652
-0.0035439
0.000779136
0.00584936
0.00924298
0.0105841
0.0103025
0.010086
0.0106717
0.0106546
0.00917335
0.00482773
-0.00109714
-0.00752691
-0.0125175
-0.0153157
-0.0158507
-0.0145864
-0.0125012
-0.0100639
-0.00797924
-0.00622973
-0.00506581
-0.00428568
-0.00394304
-0.00394306
-0.00428572
-0.00506588
-0.00622983
-0.00797939
-0.0100641
-0.0125015
-0.0145867
-0.0158511
-0.0153161
-0.0125179
-0.00752735
-0.00109755
0.00482735
0.00917306
0.0106543
0.0106716
0.010086
0.0103027
0.0105845
0.00924346
0.00584987
0.000779491
-0.00354369
-0.00617647
-0.00727644
-0.00652423
-0.00384702
-0.000197122
0.00209021
0.000472857
-0.00254876
-0.00253169
-0.00112727
-0.000375462
-0.000323124
-0.000122494
0.00212996
0.00211562
-0.0020122
-0.00233051
0.000981577
0.000562064
-0.00164886
-0.00110462
0.000827078
0.0016621
0.000409464
-0.00153814
-0.00113646
-0.00153758
-0.00217637
0.000260773
0.00220884
0.00129169
-0.00249513
-0.00351326
0.00210106
0.00349508
-0.00397181
-0.00482005
0.0023763
0.00301967
-0.00112272
-0.00233491
-0.0017769
-0.00234551
-0.00518815
-0.00405668
0.00359887
0.00743757
0.00191785
-0.00841608
-0.0177038
-0.0229004
-0.0234498
-0.0187401
-0.00772602
0.0065456
0.0180095
0.0247916
0.0278699
0.0318318
0.037577
0.0418397
0.0408385
0.0312885
0.0160272
-0.00157863
-0.0158624
-0.0247114
-0.0272164
-0.0250772
-0.0203212
-0.0148116
-0.00993468
-0.00607569
-0.00350741
-0.00190888
-0.00120436
-0.00120436
-0.00190889
-0.00350743
-0.00607571
-0.00993472
-0.0148116
-0.0203213
-0.0250773
-0.0272165
-0.0247115
-0.0158625
-0.0015786
0.0160274
0.0312887
0.0408388
0.0418399
0.037577
0.0318318
0.0278699
0.0247917
0.0180097
0.00654566
-0.00772625
-0.0187406
-0.0234503
-0.0229009
-0.0177042
-0.00841607
0.00191839
0.00743848
0.00359926
-0.00405718
-0.00518856
-0.00234552
-0.00177687
-0.00233497
-0.00112288
0.00302018
0.00237692
-0.00482087
-0.00397246
0.00349608
0.00210157
-0.00351418
-0.00249575
0.00129215
0.00220962
0.000260905
-0.00217712
-0.00153814
0.000409315
0.000260773
-0.000961196
-0.000696756
0.000198706
-0.00175117
-0.00191674
0.00303141
0.00325837
-0.00368747
-0.00598129
-0.00108713
0.00241744
-7.82053e-05
-0.0042265
-0.00404642
-0.00350891
-0.00529635
-0.00235777
0.00497967
0.0081155
0.00183847
-0.0119249
-0.0263866
-0.0368085
-0.0405851
-0.0343913
-0.0168804
0.0060976
0.0265597
0.0397275
0.0473947
0.0557289
0.0652338
0.0728742
0.0712104
0.0573212
0.0334512
0.00597086
-0.0172326
-0.0323187
-0.0374133
-0.0354032
-0.0286051
-0.020786
-0.0133182
-0.00769333
-0.00369415
-0.00139044
-0.000292478
-0.000292479
-0.00139043
-0.00369413
-0.00769329
-0.0133182
-0.0207859
-0.028605
-0.0354031
-0.0374131
-0.0323185
-0.0172322
0.00597141
0.033452
0.0573222
0.0712113
0.072875
0.0652342
0.0557291
0.0473947
0.0397275
0.0265595
0.00609705
-0.0168814
-0.0343926
-0.0405864
-0.0368094
-0.026387
-0.0119246
0.00183952
0.00811679
0.00498047
-0.00235796
-0.00529689
-0.003509
-0.00404656
-0.00422672
-7.78695e-05
0.00241798
-0.00108723
-0.00598228
-0.00368805
0.00325927
0.00303227
-0.00191707
-0.0017515
0.000198862
-0.000696875
-0.000961418
0.000260908
0.000409461
0.00166151
0.00220884
-0.000696756
-0.00210874
-0.00112943
-0.000472413
0.000338866
0.00040146
-0.00155335
-0.00285876
-0.0033361
-0.0017018
0.00257961
0.00110359
-0.0051513
-0.00666816
-0.00541613
-0.00384541
-0.00145698
-6.13303e-05
-2.646e-05
-0.00499927
-0.01682
-0.0314951
-0.0438804
-0.0480673
-0.038211
-0.014257
0.0159906
0.0432035
0.0598381
0.0688914
0.0757436
0.0826923
0.0871538
0.0806385
0.061099
0.0291046
-0.00605901
-0.0367496
-0.0562205
-0.0632201
-0.0600451
-0.0503935
-0.0387921
-0.0275208
-0.0186972
-0.0122128
-0.00834861
-0.00645443
-0.00645444
-0.00834866
-0.0122129
-0.0186973
-0.0275209
-0.0387923
-0.0503937
-0.0600455
-0.0632205
-0.056221
-0.03675
-0.0060593
0.0291046
0.0610992
0.0806388
0.0871542
0.0826925
0.0757438
0.0688917
0.0598386
0.0432041
0.0159909
-0.0142574
-0.0382121
-0.0480686
-0.0438813
-0.0314955
-0.0168199
-0.00499864
-2.57902e-05
-6.07957e-05
-0.0014567
-0.00384567
-0.00541652
-0.00666862
-0.00515163
0.00110428
0.00258046
-0.00170184
-0.00333649
-0.00285926
-0.00155355
0.000401942
0.000339272
-0.00047244
-0.00112969
-0.00210925
-0.000696869
0.00220962
0.00166209
0.000826797
0.00129169
0.000198706
-0.00112943
-0.00143577
0.000345142
0.00038287
-0.00447549
-0.00527395
0.00116403
0.00255321
-0.00151429
-0.00254634
-0.00354043
-0.00634176
-0.00726965
-0.00415692
0.000646342
-0.000410103
-0.00585341
-0.00912997
-0.0122613
-0.020108
-0.0341685
-0.048953
-0.0548048
-0.0440892
-0.017566
0.017706
0.0510347
0.0740671
0.0883521
0.0965157
0.103383
0.105437
0.0972436
0.0751904
0.0399177
0.000555897
-0.0354806
-0.0590382
-0.0695219
-0.0670343
-0.0572381
-0.0436406
-0.0306133
-0.0196206
-0.0117761
-0.00678849
-0.00445265
-0.00445264
-0.00678851
-0.0117761
-0.0196206
-0.0306134
-0.0436406
-0.0572382
-0.0670344
-0.0695221
-0.0590385
-0.0354808
0.00055586
0.0399178
0.0751909
0.0972441
0.105437
0.103383
0.0965159
0.0883524
0.0740675
0.0510351
0.017706
-0.0175667
-0.0440906
-0.0548063
-0.0489539
-0.0341686
-0.0201077
-0.012261
-0.00912982
-0.00585321
-0.000409364
0.000647008
-0.00415704
-0.00727016
-0.00634224
-0.00354061
-0.00254633
-0.00151401
0.0025542
0.00116446
-0.00527498
-0.00447611
0.000383408
0.000345412
-0.00143612
-0.00112968
0.000198865
0.00129215
0.000827078
-0.0011043
-0.00249513
-0.00175117
-0.000472413
0.000345142
0.00234254
0.000497296
-0.00661791
-0.0061414
0.00246108
0.00366955
-0.00342597
-0.00825618
-0.00733733
-0.00504773
-0.00448029
-0.00109075
0.00250624
-0.00214494
-0.011172
-0.0171404
-0.0196252
-0.0252842
-0.0387236
-0.0538502
-0.0595661
-0.0482423
-0.0203771
0.0188961
0.0584669
0.0905829
0.111523
0.122067
0.127118
0.124478
0.11341
0.0883363
0.0518503
0.00904356
-0.0308558
-0.059677
-0.0746251
-0.0752463
-0.0669379
-0.0530552
-0.0391747
-0.0266444
-0.0176971
-0.0116968
-0.00895205
-0.00895206
-0.0116968
-0.0176971
-0.0266444
-0.0391748
-0.0530552
-0.066938
-0.0752464
-0.0746252
-0.059677
-0.0308557
0.00904387
0.0518509
0.0883373
0.113411
0.124479
0.127119
0.122068
0.111524
0.0905834
0.0584671
0.0188957
-0.0203785
-0.0482444
-0.0595682
-0.0538517
-0.0387239
-0.0252837
-0.0196248
-0.0171404
-0.0111718
-0.00214414
0.00250742
-0.00109027
-0.00448039
-0.00504797
-0.00733804
-0.00825703
-0.0034259
0.00367093
0.00246197
-0.0061426
-0.00661921
0.000497831
0.00234353
0.000345426
-0.000472435
-0.00175151
-0.00249575
-0.00110462
-0.00164838
-0.00351326
-0.00191674
0.000338866
0.00038287
0.000497296
-0.00089652
-0.00438823
-0.00356471
0.000250328
4.9185e-05
-0.0045657
-0.0089112
-0.00730908
-0.00272441
-0.00155505
-0.00150197
-0.0027724
-0.00891134
-0.0181382
-0.0253081
-0.0282551
-0.0324352
-0.0411538
-0.0500994
-0.0507531
-0.0380163
-0.0112435
0.026878
0.0680325
0.104814
0.128026
0.137366
0.13525
0.12487
0.108018
0.0808527
0.0455463
0.00312662
-0.0365553
-0.0680777
-0.0849241
-0.087945
-0.079525
-0.0649069
-0.0486107
-0.0338203
-0.0224756
-0.014908
-0.0112554
-0.0112555
-0.014908
-0.0224756
-0.0338204
-0.0486108
-0.064907
-0.0795252
-0.0879453
-0.0849245
-0.0680782
-0.0365557
0.00312625
0.0455462
0.0808529
0.108018
0.124871
0.135251
0.137367
0.128027
0.104814
0.0680329
0.0268779
-0.0112443
-0.0380177
-0.0507549
-0.0501009
-0.0411544
-0.0324351
-0.0282549
-0.0253082
-0.0181383
-0.00891099
-0.00277163
-0.00150124
-0.00155458
-0.00272433
-0.00730969
-0.00891196
-0.00456576
4.99176e-05
0.000251051
-0.00356514
-0.00438914
-0.000896539
0.000497842
0.000383415
0.000339265
-0.00191708
-0.00351418
-0.00164886
0.000561932
0.00210106
0.00303141
0.00040146
-0.00447549
-0.00661791
-0.00438823
0.000771697
0.00332984
-0.000511404
-0.00452869
-0.00682514
-0.00978304
-0.00733128
-0.000845931
0.000382942
-0.00383851
-0.00962807
-0.0158642
-0.023499
-0.0313526
-0.0369846
-0.040371
-0.0423955
-0.0424245
-0.0370042
-0.0245787
-0.00218601
0.0309578
0.0717467
0.112059
0.139383
0.149808
0.143268
0.127933
0.106905
0.0809779
0.0488626
0.0104831
-0.0277792
-0.0608633
-0.0809172
-0.0879953
-0.0819386
-0.0688292
-0.0519427
-0.0363487
-0.0234396
-0.0149179
-0.0105698
-0.0105698
-0.0149179
-0.0234396
-0.0363487
-0.0519426
-0.0688292
-0.0819386
-0.0879954
-0.0809174
-0.0608636
-0.0277794
0.0104829
0.0488626
0.080978
0.106905
0.127934
0.143269
0.149809
0.139384
0.11206
0.0717467
0.0309574
-0.00218672
-0.0245797
-0.0370053
-0.0424256
-0.0423963
-0.0403714
-0.0369847
-0.0313527
-0.0234992
-0.0158642
-0.00962777
-0.00383765
0.000384138
-0.000845301
-0.0073319
-0.00978406
-0.00682575
-0.00452892
-0.000510563
0.00333137
0.000772176
-0.00438914
-0.00661921
-0.00447612
0.000401934
0.00303228
0.00210157
0.000562067
0.000981238
0.00349508
0.00325837
-0.00155335
-0.00527395
-0.0061414
-0.00356471
0.00332984
0.00348841
-0.00595547
-0.00998725
-0.0079502
-0.00694958
-0.00308793
0.000929028
-0.00135159
-0.00857606
-0.0161002
-0.020691
-0.0263625
-0.036943
-0.0475198
-0.0510711
-0.0465403
-0.0362284
-0.0231504
-0.00893808
0.0109637
0.0402641
0.0806016
0.123411
0.154789
0.165913
0.155588
0.133939
0.10729
0.0804011
0.0498876
0.0150884
-0.0225693
-0.0572395
-0.0822242
-0.0943874
-0.0930377
-0.0825549
-0.0666737
-0.0506906
-0.0368195
-0.0273284
-0.0223952
-0.0223952
-0.0273284
-0.0368196
-0.0506907
-0.0666738
-0.082555
-0.0930379
-0.0943877
-0.0822244
-0.0572398
-0.0225696
0.0150883
0.0498877
0.0804014
0.107291
0.133941
0.155589
0.165915
0.154791
0.123412
0.0806019
0.0402636
0.010963
-0.00893891
-0.0231513
-0.0362298
-0.046542
-0.0510726
-0.0475206
-0.0369429
-0.026362
-0.0206909
-0.0161003
-0.00857556
-0.00135036
0.000930394
-0.00308755
-0.00695014
-0.00795111
-0.00998864
-0.00595577
0.00349028
0.00333137
-0.00356514
-0.00614261
-0.00527499
-0.00155355
0.00325928
0.00349608
0.000981577
-0.00233008
-0.00397181
-0.00368747
-0.00285876
0.00116403
0.00246108
0.000250328
-0.000511404
-0.00595547
-0.0129351
-0.0101604
-0.0036646
7.544e-05
0.00100736
-0.00321706
-0.00980326
-0.0170814
-0.0228688
-0.0242694
-0.0291787
-0.0421926
-0.0545699
-0.0558407
-0.0436174
-0.0232151
-0.00354689
0.0122527
0.0285654
0.0511899
0.0857832
0.125126
0.156299
0.166828
0.154074
0.127893
0.0977515
0.0711392
0.0447373
0.0161804
-0.0169853
-0.0499445
-0.0770294
-0.0925578
-0.0950482
-0.0866658
-0.0716239
-0.0548526
-0.0398029
-0.028987
-0.0233403
-0.0233403
-0.028987
-0.0398029
-0.0548527
-0.071624
-0.0866659
-0.0950483
-0.092558
-0.0770297
-0.0499448
-0.0169857
0.01618
0.0447369
0.071139
0.0977516
0.127894
0.154075
0.166829
0.156301
0.125128
0.0857836
0.0511896
0.0285651
0.0122524
-0.00354726
-0.0232162
-0.0436195
-0.0558431
-0.0545715
-0.0421926
-0.0291777
-0.0242688
-0.022869
-0.0170817
-0.00980316
-0.00321607
0.00100886
7.63707e-05
-0.00366448
-0.0101616
-0.012937
-0.00595578
-0.00051057
0.000251053
0.00246198
0.00116447
-0.00285925
-0.00368806
-0.00397247
-0.00233052
-0.00201183
-0.00482005
-0.00598129
-0.0033361
0.00255321
0.00366955
4.9185e-05
-0.00452869
-0.00998725
-0.0101604
-0.00540133
-0.00200033
0.000700988
-0.00220582
-0.0108792
-0.0173389
-0.0234643
-0.0280357
-0.0296866
-0.0359581
-0.0474427
-0.0556446
-0.0509474
-0.0313694
-0.00493813
0.0174651
0.0330143
0.0444734
0.0590381
0.0847601
0.117308
0.147324
0.159383
0.149144
0.123406
0.0932488
0.0684924
0.0467182
0.0249247
-0.00292222
-0.0334327
-0.0623426
-0.0819461
-0.0895481
-0.0850547
-0.072442
-0.0562985
-0.0409769
-0.0294411
-0.0233277
-0.0233277
-0.0294411
-0.0409768
-0.0562984
-0.0724419
-0.0850546
-0.089548
-0.081946
-0.0623426
-0.0334326
-0.00292225
0.0249247
0.0467181
0.0684922
0.0932487
0.123406
0.149145
0.159384
0.147325
0.117309
0.0847601
0.0590376
0.0444731
0.0330144
0.0174654
-0.00493827
-0.0313707
-0.0509497
-0.0556467
-0.0474435
-0.0359576
-0.0296857
-0.0280356
-0.0234648
-0.0173394
-0.010879
-0.00220441
0.000702325
-0.00199977
-0.00540137
-0.0101616
-0.00998865
-0.00452892
4.99254e-05
0.00367094
0.0025542
-0.0033365
-0.00598229
-0.00482088
-0.0020122
0.0021151
0.0023763
-0.00108713
-0.0017018
-0.00151429
-0.00342597
-0.0045657
-0.00682514
-0.0079502
-0.0036646
-0.00200033
-0.00277141
-0.0021839
-0.00824985
-0.0163504
-0.0205585
-0.0265672
-0.0328453
-0.0391129
-0.0471033
-0.054112
-0.0553151
-0.0436814
-0.0184725
0.0121506
0.0384983
0.0575755
0.0685751
0.0782358
0.093836
0.116147
0.140664
0.151306
0.143009
0.116614
0.0851419
0.0586033
0.0381015
0.0201683
-0.00352567
-0.0314429
-0.0616948
-0.0847291
-0.0975572
-0.0970421
-0.0873721
-0.0719921
-0.0566039
-0.0442766
-0.0376961
-0.0376961
-0.0442767
-0.0566039
-0.0719922
-0.0873722
-0.0970422
-0.0975574
-0.0847293
-0.0616951
-0.0314431
-0.00352602
0.020168
0.038101
0.0586029
0.0851417
0.116614
0.14301
0.151307
0.140665
0.116148
0.0938367
0.0782362
0.0685755
0.0575762
0.0384989
0.0121507
-0.0184735
-0.0436837
-0.0553178
-0.0541141
-0.0471041
-0.0391124
-0.0328447
-0.0265671
-0.0205586
-0.0163506
-0.00824909
-0.00218263
-0.00277084
-0.00199977
-0.00366448
-0.00795111
-0.00682575
-0.00456577
-0.00342591
-0.00151402
-0.00170184
-0.00108723
0.00237693
0.00211562
0.00212958
0.00301967
0.00241744
0.00257961
-0.00254634
-0.00825618
-0.0089112
-0.00978304
-0.00694958
7.544e-05
0.000700988
-0.0021839
-0.00746115
-0.0174997
-0.0223857
-0.0238151
-0.0291621
-0.0374341
-0.0475314
-0.0536076
-0.0533343
-0.0470438
-0.0310941
-0.00479977
0.026027
0.0546623
0.0770143
0.0887547
0.0946174
0.099237
0.110373
0.127379
0.137833
0.134357
0.111465
0.0823217
0.0548545
0.0362918
0.021283
0.00291487
-0.0217651
-0.0514586
-0.0773443
-0.0949833
-0.0991306
-0.0931949
-0.0795294
-0.0647853
-0.0521343
-0.04531
-0.04531
-0.0521344
-0.0647854
-0.0795295
-0.093195
-0.0991307
-0.0949835
-0.0773444
-0.0514589
-0.0217654
0.00291453
0.0212826
0.0362913
0.0548539
0.0823214
0.111465
0.134357
0.137834
0.12738
0.110375
0.0992381
0.0946186
0.0887558
0.0770153
0.0546629
0.026027
-0.0048006
-0.0310961
-0.0470465
-0.0533369
-0.0536095
-0.0475317
-0.0374333
-0.0291613
-0.0238146
-0.0223862
-0.0175003
-0.00746036
-0.00218262
0.000702327
7.63722e-05
-0.00695014
-0.00978406
-0.00891196
-0.00825704
-0.00254633
0.00258046
0.00241799
0.00302019
0.00212996
-0.000122427
-0.00112272
-7.82053e-05
0.00110359
-0.00354043
-0.00733733
-0.00730908
-0.00733128
-0.00308793
0.00100736
-0.00220582
-0.00824985
-0.0174997
-0.0256727
-0.0266347
-0.0283081
-0.0344309
-0.0449529
-0.0544655
-0.0519175
-0.0401581
-0.0255348
-0.00809734
0.0140293
0.0393811
0.0652282
0.0860791
0.096659
0.0982463
0.093253
0.0951013
0.105752
0.11969
0.124719
0.111529
0.0885708
0.062685
0.0460201
0.0327808
0.0194191
-0.00255345
-0.0306841
-0.0598315
-0.0820966
-0.0924525
-0.0911745
-0.0809593
-0.0677202
-0.0556851
-0.048904
-0.048904
-0.0556851
-0.0677202
-0.0809593
-0.0911744
-0.0924524
-0.0820965
-0.0598313
-0.030684
-0.00255327
0.0194193
0.0327809
0.0460201
0.062685
0.0885709
0.111529
0.124719
0.11969
0.105753
0.0951019
0.0932537
0.0982473
0.0966599
0.0860798
0.0652285
0.0393811
0.014029
-0.00809804
-0.0255362
-0.0401601
-0.05192
-0.0544673
-0.044953
-0.0344299
-0.0283071
-0.0266346
-0.0256738
-0.0175003
-0.00824909
-0.00220441
0.00100886
-0.00308755
-0.00733191
-0.00730969
-0.00733803
-0.00354061
0.00110428
-7.78679e-05
-0.00112289
-0.000122499
-0.000323186
-0.00233491
-0.0042265
-0.0051513
-0.00634176
-0.00504773
-0.00272441
-0.000845931
0.000929028
-0.00321706
-0.0108792
-0.0163504
-0.0223857
-0.0266347
-0.0300352
-0.0365435
-0.0450521
-0.0565569
-0.0605813
-0.0472384
-0.0240593
-0.000959688
0.018317
0.0376743
0.0597996
0.0835737
0.10195
0.11025
0.105317
0.0896599
0.0786933
0.0782974
0.0908799
0.10029
0.096342
0.0786843
0.0552208
0.0390379
0.0276169
0.0192942
0.00217127
-0.0214883
-0.050746
-0.0747462
-0.0896057
-0.0915991
-0.0844139
-0.072145
-0.0606503
-0.0537432
-0.0537432
-0.0606502
-0.072145
-0.0844139
-0.091599
-0.0896056
-0.0747461
-0.050746
-0.0214882
0.00217124
0.0192941
0.0276166
0.0390377
0.0552204
0.078684
0.0963418
0.10029
0.0908798
0.0782972
0.0786934
0.0896606
0.105318
0.110252
0.101951
0.0835745
0.0597999
0.0376746
0.0183173
-0.000959845
-0.0240605
-0.047241
-0.0605846
-0.056559
-0.0450522
-0.0365426
-0.0300342
-0.0266346
-0.0223862
-0.0163506
-0.010879
-0.00321607
0.000930395
-0.000845299
-0.00272433
-0.00504796
-0.00634224
-0.00515163
-0.00422672
-0.00233498
-0.000323126
-0.00037549
-0.0017769
-0.00404642
-0.00666816
-0.00726965
-0.00448029
-0.00155505
0.000382942
-0.00135159
-0.00980326
-0.0173389
-0.0205585
-0.0238151
-0.0283081
-0.0365435
-0.0454799
-0.0525203
-0.0590714
-0.0561967
-0.037868
-0.00939582
0.0175352
0.0371918
0.0553733
0.0765569
0.0995799
0.116756
0.123857
0.114607
0.0926346
0.0707107
0.0603714
0.0691465
0.0810671
0.0855246
0.0724493
0.0514403
0.0328095
0.021188
0.014277
0.00109092
-0.0192808
-0.0480912
-0.0741829
-0.0937154
-0.0999876
-0.0967849
-0.0865106
-0.0762512
-0.0695976
-0.0695977
-0.0762511
-0.0865106
-0.0967849
-0.0999876
-0.0937154
-0.074183
-0.0480914
-0.0192809
0.00109067
0.0142768
0.0211875
0.032809
0.0514398
0.0724488
0.0855243
0.0810666
0.069146
0.0603708
0.0707108
0.0926357
0.114609
0.12386
0.116758
0.0995814
0.0765576
0.0553737
0.0371921
0.0175354
-0.00939671
-0.0378705
-0.0562002
-0.0590746
-0.0525217
-0.0454799
-0.0365426
-0.0283071
-0.0238146
-0.0205586
-0.0173394
-0.00980316
-0.00135036
0.000384139
-0.00155458
-0.0044804
-0.00727017
-0.00666862
-0.00404656
-0.00177687
-0.000375457
-0.00112722
-0.00234551
-0.00350891
-0.00541613
-0.00415692
-0.00109075
-0.00150197
-0.00383851
-0.00857606
-0.0170814
-0.0234643
-0.0265672
-0.0291621
-0.0344309
-0.0450521
-0.0525203
-0.0514781
-0.0463217
-0.0363958
-0.0169304
0.0108721
0.0355708
0.0518494
0.0646902
0.0806234
0.0992739
0.113743
0.120257
0.111852
0.0913669
0.066463
0.0530709
0.0599972
0.0768093
0.0900804
0.0838676
0.0660377
0.0440248
0.0301455
0.0208233
0.00970546
-0.00992482
-0.0384503
-0.0682236
-0.0928813
-0.105427
-0.107384
-0.100877
-0.0927353
-0.0870053
-0.0870053
-0.0927353
-0.100877
-0.107384
-0.105427
-0.0928815
-0.0682237
-0.0384504
-0.00992489
0.00970538
0.0208232
0.0301454
0.0440248
0.0660378
0.0838678
0.0900807
0.0768093
0.059997
0.0530706
0.066463
0.0913679
0.111853
0.120259
0.113745
0.0992751
0.0806238
0.0646901
0.0518495
0.0355711
0.010872
-0.0169317
-0.0363981
-0.0463244
-0.0514804
-0.0525217
-0.0450522
-0.0344299
-0.0291613
-0.0265671
-0.0234648
-0.0170817
-0.00857556
-0.00383766
-0.00150124
-0.00109027
-0.00415705
-0.00541651
-0.00350899
-0.00234552
-0.00112727
-0.00253152
-0.00518815
-0.00529635
-0.00384541
0.000646342
0.00250624
-0.0027724
-0.00962807
-0.0161002
-0.0228688
-0.0280357
-0.0328453
-0.0374341
-0.0449529
-0.0565569
-0.0590714
-0.0463217
-0.0275863
-0.00952827
0.0108929
0.0366476
0.0604255
0.0746
0.081101
0.0885586
0.0974501
0.103714
0.104419
0.0942895
0.0743652
0.0482276
0.0324303
0.0370233
0.058789
0.0813066
0.0867541
0.0759779
0.0562014
0.042548
0.033806
0.0268195
0.0108686
-0.0140773
-0.0448369
-0.0721091
-0.0900047
-0.0963137
-0.0938277
-0.0877695
-0.0831878
-0.0831878
-0.0877694
-0.0938276
-0.0963136
-0.0900046
-0.072109
-0.0448368
-0.0140771
0.0108688
0.0268197
0.0338062
0.0425482
0.0562016
0.0759783
0.0867544
0.0813068
0.0587887
0.0370226
0.0324294
0.048227
0.0743654
0.0942903
0.10442
0.103715
0.0974511
0.0885593
0.0811015
0.0746008
0.0604264
0.0366483
0.010893
-0.00952899
-0.027588
-0.0463244
-0.0590746
-0.056559
-0.044953
-0.0374333
-0.0328447
-0.0280356
-0.022869
-0.0161003
-0.00962777
-0.00277162
0.00250742
0.000647012
-0.00384566
-0.00529689
-0.00518857
-0.00253169
-0.00254846
-0.00405668
-0.00235777
-0.00145698
-0.000410103
-0.00214494
-0.00891134
-0.0158642
-0.020691
-0.0242694
-0.0296866
-0.0391129
-0.0475314
-0.0544655
-0.0605813
-0.0561967
-0.0363958
-0.00952827
0.0125705
0.0310639
0.0554226
0.0816904
0.0982435
0.103158
0.104141
0.10395
0.101811
0.0952934
0.0818278
0.0608142
0.0325604
0.0115304
0.00978832
0.0303003
0.0576157
0.0723646
0.0682619
0.051611
0.0374931
0.0296075
0.0258033
0.0151436
-0.00512554
-0.034058
-0.0624533
-0.0839682
-0.0942135
-0.0953438
-0.091503
-0.0880704
-0.0880704
-0.0915029
-0.0953437
-0.0942134
-0.0839681
-0.0624532
-0.0340578
-0.00512539
0.0151437
0.0258034
0.0296075
0.0374931
0.0516109
0.0682619
0.0723645
0.0576154
0.0302993
0.00978685
0.0115289
0.0325593
0.0608139
0.0818282
0.0952944
0.101813
0.103951
0.104143
0.103159
0.0982451
0.0816917
0.0554232
0.0310641
0.0125706
-0.00952901
-0.0363981
-0.0562002
-0.0605846
-0.0544673
-0.0475317
-0.0391124
-0.0296857
-0.0242688
-0.0206909
-0.0158642
-0.00891098
-0.00214414
-0.000409364
-0.0014567
-0.00235797
-0.00405719
-0.00254876
0.000472856
0.00359887
0.00497967
-6.13303e-05
-0.00585341
-0.011172
-0.0181382
-0.023499
-0.0263625
-0.0291787
-0.0359581
-0.0471033
-0.0536076
-0.0519175
-0.0472384
-0.037868
-0.0169304
0.0108929
0.0310639
0.0444353
0.0635828
0.088537
0.106916
0.111382
0.10848
0.104211
0.0996095
0.0923624
0.0813399
0.0640464
0.0378818
0.0136569
0.00420765
0.0188129
0.0453004
0.0642934
0.0637202
0.0469166
0.0290072
0.0174619
0.0127566
0.00413405
-0.0134149
-0.0413579
-0.0715797
-0.0971986
-0.112381
-0.117941
-0.117205
-0.115328
-0.115328
-0.117205
-0.117941
-0.112381
-0.0971986
-0.0715798
-0.041358
-0.013415
0.00413384
0.0127563
0.0174616
0.0290069
0.0469164
0.0637201
0.0642933
0.0453001
0.0188121
0.0042065
0.0136559
0.0378812
0.0640465
0.0813405
0.0923634
0.0996109
0.104213
0.108482
0.111384
0.106918
0.088538
0.0635829
0.0444351
0.0310641
0.010893
-0.0169317
-0.0378704
-0.0472411
-0.05192
-0.0536095
-0.0471041
-0.0359576
-0.0291777
-0.026362
-0.0234992
-0.0181383
-0.0111719
-0.00585321
-6.07974e-05
0.00498047
0.00359926
0.000472865
0.00209001
0.00743757
0.0081155
-2.646e-05
-0.00912997
-0.0171404
-0.0253081
-0.0313526
-0.036943
-0.0421926
-0.0474427
-0.054112
-0.0533343
-0.0401581
-0.0240593
-0.00939582
0.0108721
0.0366476
0.0554226
0.0635828
0.0731982
0.0911188
0.105289
0.104802
0.0956724
0.0863676
0.0805105
0.0756685
0.0707215
0.0618617
0.0441743
0.0230588
0.0112448
0.0224091
0.0490977
0.073771
0.0786079
0.0641051
0.0430816
0.0273233
0.0197847
0.0113967
-0.0046745
-0.0323441
-0.0647798
-0.0952329
-0.116205
-0.127336
-0.130594
-0.130837
-0.130837
-0.130594
-0.127336
-0.116205
-0.0952329
-0.0647799
-0.0323443
-0.00467463
0.0113965
0.0197846
0.0273231
0.0430816
0.0641052
0.0786083
0.0737714
0.0490978
0.0224089
0.0112443
0.0230584
0.0441743
0.0618619
0.0707218
0.0756689
0.080511
0.0863685
0.0956737
0.104804
0.105291
0.0911197
0.0731983
0.0635829
0.0554232
0.0366483
0.0108721
-0.00939669
-0.0240605
-0.0401601
-0.0533369
-0.0541141
-0.0474435
-0.0421926
-0.0369429
-0.0313527
-0.0253082
-0.0171404
-0.00912982
-2.57854e-05
0.00811679
0.00743849
0.00209021
-0.000197101
0.00191785
0.00183847
-0.00499927
-0.0122613
-0.0196252
-0.0282551
-0.0369846
-0.0475198
-0.0545699
-0.0556446
-0.0553151
-0.0470438
-0.0255348
-0.000959688
0.0175352
0.0355708
0.0604255
0.0816904
0.088537
0.0911188
0.100611
0.107932
0.100988
0.0830716
0.0653741
0.0546723
0.0484867
0.0456867
0.0425042
0.0322333
0.015645
0.00384652
0.01275
0.0413681
0.0735585
0.0884763
0.0814989
0.0626183
0.0465618
0.0386068
0.0328752
0.0202742
-0.00423684
-0.0367428
-0.0698522
-0.0956547
-0.111669
-0.118906
-0.121234
-0.121234
-0.118905
-0.111669
-0.0956545
-0.0698521
-0.0367426
-0.00423667
0.0202744
0.0328754
0.0386071
0.0465621
0.0626186
0.0814994
0.0884769
0.0735591
0.0413682
0.0127496
0.0038459
0.0156444
0.0322329
0.0425038
0.0456861
0.0484861
0.0546717
0.065374
0.0830723
0.10099
0.107934
0.100612
0.0911197
0.088538
0.0816917
0.0604264
0.0355711
0.0175354
-0.00095985
-0.0255362
-0.0470465
-0.0553178
-0.0556467
-0.0545715
-0.0475206
-0.0369847
-0.0282549
-0.0196248
-0.012261
-0.00499863
0.00183952
0.0019184
-0.000197122
-0.00384681
-0.00841608
-0.0119249
-0.01682
-0.020108
-0.0252842
-0.0324352
-0.040371
-0.0510711
-0.0558407
-0.0509474
-0.0436814
-0.0310941
-0.00809734
0.018317
0.0371918
0.0518494
0.0746
0.0982435
0.106916
0.105289
0.107932
0.111684
0.102769
0.0807783
0.0577256
0.0428495
0.0340642
0.0302048
0.0279653
0.0202688
0.00488647
-0.0106499
-0.0079337
0.0172381
0.0525383
0.0754201
0.0754322
0.0598847
0.0434565
0.0355698
0.0320577
0.0240266
0.00387321
-0.0265454
-0.0606448
-0.0898403
-0.110024
-0.12087
-0.125192
-0.125192
-0.12087
-0.110024
-0.0898402
-0.0606446
-0.0265452
0.00387335
0.0240267
0.0320578
0.03557
0.0434567
0.0598849
0.0754325
0.0754204
0.0525384
0.0172377
-0.00793446
-0.0106508
0.00488571
0.0202681
0.0279646
0.0302039
0.0340632
0.0428486
0.0577253
0.080779
0.102771
0.111686
0.107934
0.105291
0.106918
0.0982451
0.0746008
0.0518495
0.0371921
0.0183173
-0.00809804
-0.0310961
-0.0436837
-0.0509497
-0.0558431
-0.0510726
-0.0403714
-0.0324351
-0.0252837
-0.0201077
-0.0168199
-0.0119246
-0.00841608
-0.00384702
-0.00652397
-0.0177038
-0.0263866
-0.0314951
-0.0341685
-0.0387236
-0.0411538
-0.0423955
-0.0465403
-0.0436174
-0.0313694
-0.0184725
-0.00479977
0.0140293
0.0376743
0.0553733
0.0646902
0.081101
0.103158
0.111382
0.104802
0.100988
0.102769
0.0969772
0.0781602
0.0563234
0.0428997
0.0356374
0.0331887
0.0320589
0.0263371
0.0110936
-0.00953623
-0.0160513
0.000152451
0.0330518
0.0585605
0.0628914
0.0480743
0.0292403
0.0184253
0.0143372
0.00876208
-0.00829516
-0.0367943
-0.0720299
-0.10447
-0.129153
-0.1438
-0.150375
-0.150375
-0.1438
-0.129153
-0.10447
-0.0720299
-0.0367944
-0.00829525
0.00876196
0.014337
0.0184251
0.0292401
0.0480741
0.0628913
0.0585604
0.0330515
0.000151772
-0.0160522
-0.00953703
0.0110932
0.0263369
0.0320586
0.0331883
0.0356368
0.0428992
0.0563232
0.0781608
0.0969786
0.102771
0.10099
0.104804
0.111384
0.103159
0.0811015
0.0646902
0.0553736
0.0376746
0.014029
-0.0048006
-0.0184735
-0.0313707
-0.0436195
-0.046542
-0.0423963
-0.0411544
-0.0387239
-0.0341686
-0.0314955
-0.026387
-0.0177042
-0.00652423
-0.00727627
-0.0229004
-0.0368085
-0.0438804
-0.048953
-0.0538502
-0.0500994
-0.0424245
-0.0362284
-0.0232151
-0.00493813
0.0121506
0.026027
0.0393811
0.0597996
0.0765569
0.0806234
0.0885586
0.104141
0.10848
0.0956724
0.0830716
0.0807783
0.0781602
0.0637787
0.0452188
0.0350941
0.0317291
0.0339358
0.0371595
0.0374157
0.027292
0.00746897
-0.00383132
0.00585326
0.0365836
0.0647882
0.0739196
0.0602249
0.038762
0.022965
0.0158754
0.00968397
-0.00619881
-0.0345488
-0.0718014
-0.1086
-0.138572
-0.157875
-0.167118
-0.167118
-0.157875
-0.138572
-0.1086
-0.0718014
-0.0345489
-0.00619891
0.00968388
0.0158753
0.0229649
0.038762
0.060225
0.0739199
0.0647884
0.0365836
0.00585295
-0.00383171
0.00746874
0.0272921
0.0374159
0.0371596
0.0339356
0.0317287
0.0350935
0.0452183
0.0637788
0.0781608
0.080779
0.0830724
0.0956737
0.108482
0.104143
0.0885593
0.0806238
0.0765576
0.0597999
0.0393811
0.026027
0.0121507
-0.00493827
-0.0232162
-0.0362298
-0.0424256
-0.0501009
-0.0538517
-0.048954
-0.0438813
-0.0368094
-0.0229009
-0.00727645
-0.00617652
-0.0234498
-0.0405851
-0.0480673
-0.0548048
-0.0595661
-0.0507531
-0.0370042
-0.0231504
-0.00354689
0.0174651
0.0384983
0.0546623
0.0652282
0.0835737
0.0995799
0.0992739
0.0974501
0.10395
0.104211
0.0863676
0.0653741
0.0577256
0.0563234
0.0452188
0.028742
0.0197964
0.0187915
0.024743
0.0315434
0.0379067
0.034045
0.0179344
0.00486186
0.00982788
0.039263
0.0710889
0.0873129
0.0779343
0.0569435
0.0383822
0.0295222
0.0237123
0.0101473
-0.0165022
-0.0541801
-0.0939734
-0.128331
-0.151809
-0.163536
-0.163536
-0.151809
-0.128331
-0.0939734
-0.0541801
-0.0165022
0.0101473
0.0237123
0.0295222
0.0383822
0.0569436
0.0779346
0.0873133
0.0710893
0.0392631
0.00982776
0.00486178
0.0179345
0.0340455
0.0379071
0.0315435
0.0247428
0.0187908
0.0197955
0.0287412
0.0452183
0.0563232
0.0577253
0.065374
0.0863684
0.104213
0.103951
0.0974512
0.0992751
0.0995814
0.0835745
0.0652286
0.0546629
0.0384989
0.0174654
-0.00354725
-0.0231513
-0.0370053
-0.0507549
-0.0595682
-0.0548063
-0.0480686
-0.0405864
-0.0234503
-0.00617648
-0.0035439
-0.0187401
-0.0343913
-0.038211
-0.0440892
-0.0482423
-0.0380163
-0.0245787
-0.00893808
0.0122527
0.0330143
0.0575755
0.0770143
0.0860791
0.10195
0.116756
0.113743
0.103714
0.101811
0.0996095
0.0805105
0.0546723
0.0428495
0.0428997
0.0350941
0.0197964
0.0090157
0.0064545
0.0116197
0.017391
0.025673
0.0248027
0.0119791
-0.0027195
-0.00173865
0.0261708
0.0619688
0.0871482
0.0849685
0.0681631
0.0493016
0.0408094
0.036466
0.0268586
0.00341254
-0.0327513
-0.0740609
-0.111582
-0.138604
-0.1525
-0.1525
-0.138604
-0.111582
-0.0740607
-0.0327512
0.00341271
0.0268587
0.0364662
0.0408096
0.0493018
0.0681634
0.0849688
0.0871486
0.061969
0.0261708
-0.00173901
-0.00271981
0.0119789
0.0248028
0.0256731
0.0173908
0.0116192
0.0064537
0.00901483
0.0197955
0.0350935
0.0428992
0.0428487
0.0546717
0.080511
0.0996109
0.101813
0.103715
0.113745
0.116758
0.101951
0.0860798
0.0770153
0.0575762
0.0330144
0.0122524
-0.00893892
-0.0245797
-0.0380177
-0.0482444
-0.0440906
-0.0382121
-0.0343926
-0.0187406
-0.0035437
0.000779136
-0.00772602
-0.0168804
-0.014257
-0.017566
-0.0203771
-0.0112435
-0.00218601
0.0109637
0.0285654
0.0444734
0.0685751
0.0887547
0.096659
0.11025
0.123857
0.120257
0.104419
0.0952934
0.0923624
0.0756685
0.0484867
0.0340642
0.0356374
0.0317291
0.0187915
0.0064545
0.00272106
0.00702886
0.0117495
0.0208247
0.021478
0.0110436
-0.00682095
-0.0119346
0.00977914
0.0450272
0.0746287
0.077072
0.0623202
0.0412428
0.0309056
0.0257132
0.0185742