/*--------------------------------*- C++ -*----------------------------------*\
  =========                 |
  \\      /  F ield         | OpenFOAM: The Open Source CFD Toolbox
   \\    /   O peration     | Website:  https://openfoam.org
    \\  /    A nd           | Version:  dev
     \\/     M anipulation  |
\*---------------------------------------------------------------------------*/
FoamFile
{
    format      ascii;
    class       volScalarField;
    location    "50";
    object      h;
}
// * * * * * * * * * * * * * * * * * * * * * * * * * * * * * * * * * * * * * //

dimensions      [0 1 0 0 0 0 0];

internalField   nonuniform List<scalar> 
10000
(
0.000175877
0.000190221
-7.46777e-05
-0.000297643
-0.000302549
-0.000210405
-9.44954e-05
0.000319857
0.000249129
0.00025784
0.000648092
-0.000103955
-0.000508849
0.000157552
0.000117566
-0.000350315
-0.000653642
-0.000875474
-0.000622964
-0.000397236
-0.000558502
0.000320121
0.00106827
0.000632141
0.000427757
0.000373695
-0.000320384
-0.00244969
-0.00414844
-0.00532045
-0.006657
-0.00725257
-0.00649312
-0.00396253
-0.000573672
0.00382112
0.00747993
0.00873362
0.00694039
0.0042022
0.00261715
0.00273164
0.00324863
0.00234012
-0.000860504
-0.00527538
-0.00799204
-0.00671699
-0.0021568
0.00189578
0.00189577
-0.00215683
-0.00671701
-0.00799203
-0.00527535
-0.000860472
0.00234013
0.00324859
0.00273155
0.00261701
0.00420207
0.0069403
0.00873354
0.00747981
0.00382093
-0.000573929
-0.00396279
-0.00649337
-0.00725273
-0.00665708
-0.00532045
-0.0041484
-0.00244954
-0.000320116
0.000373931
0.000427944
0.000632297
0.00106844
0.000320147
-0.000558624
-0.000397319
-0.000623086
-0.000875623
-0.000653737
-0.000350345
0.00011766
0.000157611
-0.000508965
-0.000103962
0.000648198
0.000257861
0.000249192
0.00031992
-9.44869e-05
-0.000210426
-0.00030266
-0.000297723
-7.46754e-05
0.000190285
0.000175939
0.000190221
0.000174608
-6.25556e-05
3.76481e-05
0.000268352
-0.000232496
-0.000387939
0.000499225
-0.000293759
-0.000666929
0.000623842
-0.000119127
-0.00057864
0.000356337
0.000203044
-0.000101939
2.19334e-05
7.41029e-07
0.000337768
7.0234e-05
-0.00129311
-0.000476342
-0.000345174
-0.00254965
-0.00364608
-0.00394446
-0.00543972
-0.0100225
-0.0127888
-0.0145935
-0.0165267
-0.0163403
-0.012364
-0.00387894
0.00650445
0.0196219
0.0299777
0.033248
0.0272328
0.0185248
0.0127746
0.0118394
0.0119144
0.00806617
-0.00211316
-0.0155323
-0.0239214
-0.0208124
-0.00816822
0.00319304
0.00319304
-0.0081682
-0.0208124
-0.0239213
-0.0155323
-0.00211305
0.00806628
0.0119145
0.0118394
0.0127745
0.0185248
0.0272329
0.0332483
0.029978
0.019622
0.00650434
-0.00387906
-0.0123642
-0.0163404
-0.0165267
-0.0145935
-0.0127889
-0.0100226
-0.00543957
-0.00394445
-0.0036462
-0.00254975
-0.000345068
-0.000476323
-0.00129326
7.03059e-05
0.000337864
7.5894e-07
2.19379e-05
-0.000101966
0.000203119
0.000356393
-0.000578784
-0.000119095
0.000623964
-0.000667083
-0.000293764
0.000499327
-0.000388027
-0.000232531
0.000268393
3.7665e-05
-6.25718e-05
0.000174657
0.000190291
-7.46777e-05
-6.25556e-05
-0.000302333
-5.86472e-05
0.000814078
-7.85523e-05
-0.000480245
0.000679917
-0.000470445
-0.000984393
0.000313928
-0.000154863
-0.000294462
0.000159351
-0.00018416
-0.000247475
0.000126409
0.000424185
0.000647012
6.9915e-05
-0.00103837
-0.000290474
-0.0012025
-0.0040281
-0.00563623
-0.00704109
-0.0105861
-0.0171618
-0.0211675
-0.0249783
-0.0282292
-0.0273609
-0.0198855
-0.00618752
0.0107408
0.0318163
0.0486489
0.0542605
0.0454922
0.0324419
0.0234084
0.0212404
0.0202111
0.0134073
-0.00267042
-0.0232396
-0.0361567
-0.0317372
-0.0129854
0.00395571
0.00395577
-0.0129852
-0.0317371
-0.0361566
-0.0232395
-0.00267029
0.0134075
0.0202112
0.0212404
0.0234084
0.0324419
0.0454924
0.054261
0.0486492
0.0318165
0.0107407
-0.00618769
-0.0198858
-0.0273611
-0.0282292
-0.0249784
-0.0211676
-0.017162
-0.010586
-0.00704108
-0.00563638
-0.00402825
-0.00120241
-0.000290338
-0.00103845
6.99925e-05
0.00064719
0.00042428
0.00012643
-0.00024752
-0.000184195
0.00015937
-0.000294506
-0.000154832
0.000314018
-0.000984604
-0.000470511
0.000680085
-0.000480378
-7.85742e-05
0.000814323
-5.86413e-05
-0.000302465
-6.25812e-05
-7.46755e-05
-0.000297643
3.76481e-05
-5.86472e-05
-0.000619548
3.57715e-05
-0.000195592
-0.00024837
0.000470029
-4.60958e-05
0.000203377
0.000682148
-0.000291747
-0.000526474
6.87584e-05
-5.27424e-05
-0.000704185
-0.000913337
-0.000786871
-0.000958457
-0.00139049
-0.000819478
1.87166e-05
-0.00120797
-0.00280738
-0.0041437
-0.00710175
-0.01363
-0.021311
-0.0275849
-0.0348731
-0.0406395
-0.0397495
-0.0292364
-0.0120889
0.0105668
0.0374701
0.0600796
0.067759
0.0584243
0.0428951
0.0317269
0.027846
0.0248615
0.0151127
-0.00539273
-0.0305149
-0.0463869
-0.041344
-0.0193237
0.000730251
0.000730424
-0.0193233
-0.0413437
-0.0463867
-0.0305149
-0.00539271
0.0151128
0.0248616
0.0278459
0.0317267
0.0428949
0.0584242
0.0677592
0.0600797
0.0374699
0.0105663
-0.0120894
-0.0292369
-0.03975
-0.0406398
-0.0348731
-0.0275848
-0.0213109
-0.0136298
-0.00710131
-0.00414339
-0.00280726
-0.00120785
1.89139e-05
-0.000819532
-0.0013907
-0.000958558
-0.000786957
-0.000913454
-0.000704232
-5.26791e-05
6.8833e-05
-0.000526553
-0.000291816
0.000682319
0.000203427
-4.61492e-05
0.000470154
-0.000248385
-0.000195651
3.57969e-05
-0.000619648
-5.86448e-05
3.76636e-05
-0.000297721
-0.000302549
0.000268352
0.000814078
3.57715e-05
-0.000371048
-0.000134536
-1.72796e-05
-0.000484918
-0.000347438
1.2058e-05
-0.000332727
-0.000234308
-0.000176076
0.000101481
0.000225213
-0.00017921
0.000308167
0.000596345
-0.000389708
-0.00117853
-0.000521352
-0.00203838
-0.00485133
-0.00612419
-0.00820277
-0.0129331
-0.0210781
-0.0274289
-0.0343215
-0.0427156
-0.0482186
-0.0449973
-0.0301864
-0.00910633
0.0191997
0.050168
0.0767184
0.0857725
0.077011
0.0598175
0.0459509
0.0382821
0.0310239
0.0168964
-0.00780205
-0.0360457
-0.0540818
-0.0499545
-0.0282312
-0.00808529
-0.008085
-0.0282306
-0.0499539
-0.0540815
-0.0360457
-0.0078021
0.0168965
0.0310241
0.0382823
0.0459509
0.0598174
0.0770111
0.0857728
0.0767188
0.0501681
0.0191996
-0.0091065
-0.0301865
-0.0449975
-0.0482188
-0.0427155
-0.0343213
-0.0274289
-0.0210783
-0.0129331
-0.00820268
-0.00612432
-0.00485158
-0.00203834
-0.000521185
-0.00117861
-0.000389693
0.000596542
0.000308253
-0.000179246
0.000225252
0.000101542
-0.00017608
-0.000234399
-0.00033276
1.21687e-05
-0.000347509
-0.000485016
-1.71855e-05
-0.000134574
-0.000371219
3.57984e-05
0.000814325
0.000268402
-0.000302658
-0.000210405
-0.000232496
-7.85523e-05
-0.000195592
-0.000134536
0.000480972
0.000243556
-0.000651121
0.000223261
9.97831e-05
-0.00112585
-0.000114284
0.000276201
-0.000441869
-0.000744751
-0.000619664
0.000120681
7.84219e-05
-0.000782843
-0.000511601
0.000431094
-0.0020424
-0.00451259
-0.00545734
-0.00913776
-0.0164265
-0.0259471
-0.0332842
-0.0429881
-0.0533662
-0.059019
-0.0542648
-0.037081
-0.0119625
0.0210146
0.0552086
0.0842139
0.0961584
0.0908982
0.0751861
0.0602699
0.0492833
0.0381074
0.0201307
-0.00694666
-0.0360594
-0.0544081
-0.0518927
-0.0331049
-0.0154445
-0.0154441
-0.033104
-0.0518919
-0.0544077
-0.0360593
-0.00694669
0.0201308
0.0381075
0.0492834
0.0602699
0.075186
0.0908981
0.0961586
0.0842141
0.0552086
0.0210144
-0.0119628
-0.0370812
-0.0542652
-0.0590195
-0.0533664
-0.042988
-0.0332841
-0.0259474
-0.0164265
-0.00913745
-0.00545716
-0.00451274
-0.00204239
0.000431446
-0.000511559
-0.000782964
7.85159e-05
0.000120811
-0.000619753
-0.000744923
-0.000441879
0.000276387
-0.000114304
-0.00112609
9.98983e-05
0.00022333
-0.000651317
0.000243653
0.000481157
-0.000134568
-0.00019565
-7.85804e-05
-0.000232532
-0.00021043
-9.44954e-05
-0.000387939
-0.000480245
-0.00024837
-1.72796e-05
0.000243556
-0.000171395
-0.000504009
0.000410965
0.000255419
-0.000492413
0.000219603
0.000241217
-0.000754387
-0.000680858
-5.72621e-05
-0.000657682
-0.00164102
-0.00174971
-0.000936294
-0.00108427
-0.00329051
-0.00413036
-0.00534779
-0.0103929
-0.0187239
-0.0275519
-0.0369751
-0.0494287
-0.0603215
-0.0653131
-0.0595779
-0.0420456
-0.0131331
0.0225024
0.0577978
0.0863537
0.100984
0.100072
0.0869803
0.0712752
0.0566446
0.0413366
0.0191956
-0.00970061
-0.0387914
-0.0565082
-0.056409
-0.0427165
-0.0296336
-0.0296332
-0.0427155
-0.056408
-0.0565076
-0.0387913
-0.00970062
0.0191956
0.0413366
0.0566446
0.0712751
0.0869801
0.100072
0.100983
0.0863536
0.0577977
0.0225022
-0.0131334
-0.042046
-0.0595782
-0.0653135
-0.0603217
-0.0494285
-0.0369747
-0.0275518
-0.0187239
-0.0103925
-0.00534734
-0.00413032
-0.00329067
-0.00108414
-0.000936206
-0.00174996
-0.00164128
-0.000657629
-5.71211e-05
-0.000680981
-0.000754497
0.00024138
0.000219688
-0.000492531
0.000255492
0.000411108
-0.000504118
-0.000171482
0.000243649
-1.71833e-05
-0.000248387
-0.000480382
-0.000388024
-9.44876e-05
0.000319857
0.000499225
0.000679917
0.000470029
-0.000484918
-0.000651121
-0.000504009
-0.000170956
-2.23856e-06
-0.000695422
-0.000397247
0.000249997
-0.000347809
-0.000772475
0.000307877
0.000940287
-0.000329519
-0.000725316
-3.09041e-05
-0.000472201
-0.00313944
-0.00521617
-0.00592954
-0.00983829
-0.0167217
-0.0246222
-0.03222
-0.0437449
-0.0570257
-0.065352
-0.0671819
-0.0597013
-0.0409618
-0.0078394
0.0301398
0.0651599
0.0919208
0.108867
0.112481
0.102636
0.0862838
0.068193
0.0482977
0.0215533
-0.00977307
-0.038832
-0.0560069
-0.0589523
-0.0519011
-0.0447133
-0.0447129
-0.0519002
-0.0589513
-0.0560062
-0.0388317
-0.00977292
0.0215534
0.0482977
0.0681929
0.0862838
0.102636
0.112481
0.108867
0.0919209
0.0651601
0.03014
-0.00783938
-0.040962
-0.0597014
-0.067182
-0.0653522
-0.0570258
-0.0437447
-0.0322198
-0.0246225
-0.0167219
-0.00983815
-0.00592944
-0.00521647
-0.0031396
-0.000471905
-3.07055e-05
-0.000725442
-0.000329539
0.000940588
0.000308002
-0.000772672
-0.000347885
0.000250153
-0.000397268
-0.000695597
-2.14618e-06
-0.000170826
-0.000504121
-0.00065132
-0.000485016
0.000470153
0.00068009
0.000499332
0.00031992
0.000249129
-0.000293759
-0.000470445
-4.60958e-05
-0.000347438
0.000223261
0.000410965
-2.23856e-06
-0.000149123
-0.000582642
-0.000243931
-0.000216449
-0.000904564
-0.000652734
-6.52972e-05
-0.000697745
-0.0015759
-0.000583076
0.000481922
-0.000676675
-0.00306261
-0.0031801
-0.00420604
-0.0107572
-0.0189083
-0.0266585
-0.0360303
-0.0514509
-0.0663042
-0.0731822
-0.0730992
-0.0653697
-0.0454476
-0.00964542
0.0301703
0.0642889
0.0899111
0.109533
0.11874
0.114315
0.0999071
0.0810377
0.0580167
0.0279616
-0.00531511
-0.0334969
-0.049756
-0.0553367
-0.0551471
-0.0540598
-0.0540595
-0.0551463
-0.0553358
-0.0497552
-0.0334964
-0.00531468
0.0279618
0.0580166
0.0810374
0.0999069
0.114315
0.11874
0.109533
0.0899109
0.064289
0.0301704
-0.00964555
-0.0454481
-0.0653701
-0.0730994
-0.0731826
-0.0663047
-0.0514509
-0.0360298
-0.0266584
-0.0189085
-0.0107571
-0.00420548
-0.00317996
-0.00306287
-0.000676547
0.00048228
-0.000583068
-0.00157621
-0.000697816
-6.50981e-05
-0.000652762
-0.000904773
-0.000216375
-0.00024382
-0.000582796
-0.000149195
-2.14616e-06
0.00041111
0.000223335
-0.000347509
-4.61504e-05
-0.00047051
-0.00029377
0.000249189
0.00025784
-0.000666929
-0.000984393
0.000203377
1.2058e-05
9.97831e-05
0.000255419
-0.000695422
-0.000582642
0.000346914
0.000164087
-0.000452588
-0.000202523
3.3977e-05
-0.000382829
-0.00119219
-0.00143165
-0.000828068
-0.00126519
-0.00305578
-0.00418674
-0.00368494
-0.00628455
-0.0133342
-0.0205103
-0.0277478
-0.0388521
-0.0556498
-0.0695742
-0.0749747
-0.0732352
-0.0648394
-0.043917
-0.00805905
0.0310494
0.0627488
0.0859299
0.105668
0.118356
0.119037
0.107617
0.0886952
0.062498
0.0288458
-0.00669635
-0.0343719
-0.0501523
-0.0584573
-0.0648823
-0.069581
-0.0695808
-0.0648819
-0.0584567
-0.0501516
-0.0343712
-0.00669578
0.028846
0.0624978
0.0886947
0.107616
0.119037
0.118356
0.105668
0.0859297
0.0627488
0.0310496
-0.00805907
-0.0439175
-0.0648397
-0.0732351
-0.0749747
-0.0695746
-0.0556499
-0.0388515
-0.0277473
-0.0205104
-0.0133344
-0.00628413
-0.00368456
-0.004187
-0.00305611
-0.0012651
-0.0008279
-0.00143181
-0.00119242
-0.000382754
3.41731e-05
-0.00020256
-0.000452701
0.00016424
0.00034708
-0.000582794
-0.000695597
0.000255491
9.98994e-05
1.21675e-05
0.000203425
-0.000984604
-0.000667085
0.000257862
0.000648092
0.000623842
0.000313928
0.000682148
-0.000332727
-0.00112585
-0.000492413
-0.000397247
-0.000243931
0.000164087
-0.000729049
-0.00079718
0.00021568
-0.000221971
-0.000607609
-6.45982e-05
0.000355811
-0.000162686
-0.00161351
-0.00293576
-0.00383433
-0.0056829
-0.0109843
-0.017615
-0.0245436
-0.0335661
-0.0465246
-0.0620326
-0.0732835
-0.0773463
-0.0729425
-0.0611547
-0.0378274
-0.00265684
0.0352345
0.0655836
0.0866823
0.105174
0.12008
0.12652
0.119755
0.101567
0.0721806
0.0348765
-0.00271136
-0.0301977
-0.0461098
-0.0573771
-0.0697715
-0.0794987
-0.0794987
-0.0697714
-0.0573768
-0.0461091
-0.0301968
-0.00271059
0.034877
0.0721805
0.101566
0.119754
0.12652
0.12008
0.105174
0.0866824
0.0655839
0.0352349
-0.00265653
-0.0378275
-0.0611549
-0.0729424
-0.0773462
-0.0732837
-0.0620331
-0.0465245
-0.0335657
-0.0245436
-0.0176154
-0.0109845
-0.00568257
-0.00383421
-0.002936
-0.0016136
-0.000162424
0.000356069
-6.45991e-05
-0.000607725
-0.000221911
0.000215832
-0.000797326
-0.000729201
0.000164239
-0.00024382
-0.000397269
-0.000492535
-0.00112609
-0.00033276
0.000682319
0.000314022
0.000623967
0.000648199
-0.000103955
-0.000119127
-0.000154863
-0.000291747
-0.000234308
-0.000114284
0.000219603
0.000249997
-0.000216449
-0.000452588
-0.00079718
-0.000652452
-0.000274308
-0.000975086
-0.00131208
-0.000577489
-0.000346557
-0.00139421
-0.00184574
-0.0014193
-0.00230581
-0.00597873
-0.0117293
-0.0171137
-0.0253761
-0.0383244
-0.0534087
-0.0673317
-0.0779344
-0.0829002
-0.0769665
-0.0613158
-0.036328
-0.00356021
0.0325014
0.0620907
0.0817618
0.098273
0.115573
0.129201
0.129393
0.113176
0.081653
0.0421575
0.00438157
-0.0220078
-0.0379996
-0.0519808
-0.0691699
-0.0827168
-0.082717
-0.0691701
-0.0519807
-0.037999
-0.0220068
0.00438245
0.042158
0.081653
0.113175
0.129393
0.129201
0.115573
0.0982729
0.0817619
0.062091
0.0325017
-0.0035601
-0.0363282
-0.0613162
-0.0769668
-0.0829003
-0.0779345
-0.0673321
-0.053409
-0.0383241
-0.0253756
-0.0171136
-0.0117295
-0.00597851
-0.00230533
-0.00141914
-0.00184593
-0.00139429
-0.000346406
-0.000577424
-0.00131223
-0.000975213
-0.000274212
-0.000652389
-0.000797327
-0.000452704
-0.000216374
0.000250155
0.000219689
-0.000114302
-0.000234397
-0.000291817
-0.000154832
-0.000119096
-0.000103964
-0.000508849
-0.00057864
-0.000294462
-0.000526474
-0.000176076
0.000276201
0.000241217
-0.000347809
-0.000904564
-0.000202523
0.00021568
-0.000274308
-0.000235619
-0.000412491
-0.000985433
-0.000887039
-0.00119921
-0.00260857
-0.00290456
-0.00264604
-0.00458288
-0.00901396
-0.0135789
-0.017864
-0.0273818
-0.0422968
-0.0566487
-0.0677189
-0.0776108
-0.0828971
-0.0751301
-0.0556174
-0.0303455
-0.00153542
0.0307262
0.0579
0.0745359
0.0873225
0.105715
0.125403
0.13182
0.116456
0.0826452
0.0417593
0.00533065
-0.0195255
-0.0359788
-0.052911
-0.0739483
-0.0901946
-0.0901949
-0.0739488
-0.0529112
-0.0359784
-0.0195247
0.00533136
0.0417597
0.0826452
0.116455
0.131819
0.125402
0.105714
0.0873222
0.0745361
0.0579004
0.0307265
-0.00153534
-0.0303455
-0.0556176
-0.0751305
-0.0828973
-0.0776107
-0.0677188
-0.056649
-0.0422968
-0.0273812
-0.0178635
-0.0135791
-0.00901416
-0.00458266
-0.00264581
-0.0029047
-0.0026088
-0.00119923
-0.000886987
-0.000985433
-0.00041251
-0.000235624
-0.000274209
0.000215833
-0.00020256
-0.000904771
-0.000347885
0.00024138
0.000276388
-0.000176081
-0.000526555
-0.000294507
-0.000578786
-0.000508964
0.000157552
0.000356337
0.000159351
6.87584e-05
0.000101481
-0.000441869
-0.000754387
-0.000772475
-0.000652734
3.3977e-05
-0.000221971
-0.000975086
-0.000412491
-3.43629e-05
-0.000609391
-0.000421591
-0.000252773
-0.00152933
-0.00237611
-0.00325305
-0.00649379
-0.0115751
-0.016429
-0.0223169
-0.0339639
-0.0494688
-0.0625168
-0.0715024
-0.0798342
-0.0832879
-0.0720559
-0.0481986
-0.0214563
0.00481668
0.0332938
0.0577165
0.0716194
0.082008
0.101473
0.12608
0.136844
0.121426
0.0855723
0.0448204
0.0113461
-0.0113151
-0.0285964
-0.0486773
-0.0727932
-0.0907349
-0.0907352
-0.0727938
-0.0486778
-0.0285962
-0.0113146
0.0113466
0.0448206
0.0855722
0.121426
0.136843
0.126079
0.101473
0.0820077
0.0716199
0.0577173
0.0332943
0.00481697
-0.0214561
-0.0481985
-0.0720563
-0.0832883
-0.0798341
-0.0715022
-0.0625171
-0.0494692
-0.0339638
-0.0223165
-0.016429
-0.0115755
-0.00649382
-0.00325282
-0.00237604
-0.00152934
-0.000252661
-0.000421515
-0.000609367
-3.42859e-05
-0.00041251
-0.000975211
-0.000221912
3.41722e-05
-0.000652761
-0.000772676
-0.000754499
-0.000441878
0.00010154
6.88342e-05
0.000159373
0.000356393
0.000157612
0.000117566
0.000203044
-0.00018416
-5.27424e-05
0.000225213
-0.000744751
-0.000680858
0.000307877
-6.52972e-05
-0.000382829
-0.000607609
-0.00131208
-0.000985433
-0.000609391
-0.00133347
-0.0012552
-0.000876078
-0.00174022
-0.00227611
-0.00332999
-0.00639464
-0.0108822
-0.0164867
-0.0248032
-0.0379905
-0.0534557
-0.0669723
-0.0765351
-0.0840495
-0.0855758
-0.0724023
-0.0463276
-0.0183153
0.00565558
0.0293241
0.0499044
0.0625846
0.073288
0.0945843
0.122467
0.135849
0.120712
0.0848335
0.0470973
0.0190517
0.000250932
-0.0171845
-0.0397426
-0.0658463
-0.0844264
-0.0844267
-0.065847
-0.0397432
-0.0171846
0.0002511
0.0190518
0.0470972
0.0848334
0.120712
0.135849
0.122466
0.0945837
0.0732875
0.0625847
0.049905
0.0293247
0.00565583
-0.0183151
-0.0463276
-0.0724028
-0.0855764
-0.0840497
-0.0765349
-0.0669724
-0.0534562
-0.0379906
-0.0248027
-0.0164863
-0.0108823
-0.00639465
-0.00332975
-0.00227596
-0.00174026
-0.000876035
-0.00125518
-0.00133353
-0.00060937
-0.000985434
-0.00131223
-0.000607728
-0.000382754
-6.50956e-05
0.000308
-0.00068098
-0.000744921
0.00022525
-5.26776e-05
-0.000184194
0.000203116
0.000117661
-0.000350315
-0.000101939
-0.000247475
-0.000704185
-0.00017921
-0.000619664
-5.72621e-05
0.000940287
-0.000697745
-0.00119219
-6.45982e-05
-0.000577489
-0.000887039
-0.000421591
-0.0012552
-0.0021109
-0.0021999
-0.00268404
-0.00361989
-0.00569841
-0.00844059
-0.0121886
-0.0187635
-0.0287213
-0.0414331
-0.0553385
-0.0691783
-0.0791765
-0.0843379
-0.0826918
-0.0682871
-0.0413047
-0.0125535
0.00848881
0.025144
0.0402336
0.0523908
0.0645273
0.0858885
0.112591
0.125041
0.109377
0.0747202
0.0414464
0.0200378
0.00587925
-0.0111111
-0.0355528
-0.0627527
-0.0812206
-0.0812208
-0.0627534
-0.0355535
-0.0111117
0.00587884
0.0200374
0.041446
0.0747199
0.109377
0.125042
0.11259
0.0858881
0.0645268
0.0523907
0.0402339
0.0251445
0.00848928
-0.0125532
-0.0413046
-0.0682875
-0.0826924
-0.0843382
-0.0791763
-0.069178
-0.0553386
-0.0414333
-0.028721
-0.018763
-0.0121884
-0.00844074
-0.00569841
-0.00361972
-0.00268406
-0.00220005
-0.00211097
-0.00125518
-0.000421517
-0.000886985
-0.000577422
-6.46018e-05
-0.00119242
-0.000697813
0.000940587
-5.71194e-05
-0.000619752
-0.000179249
-0.000704231
-0.00024752
-0.000101967
-0.000350343
-0.000653642
2.19334e-05
0.000126409
-0.000913337
0.000308167
0.000120681
-0.000657682
-0.000329519
-0.0015759
-0.00143165
0.000355811
-0.000346557
-0.00119921
-0.000252773
-0.000876078
-0.0021999
-0.00183198
-0.00208195
-0.00462195
-0.00816684
-0.0107913
-0.0151235
-0.0239497
-0.0356064
-0.0474989
-0.0599499
-0.0742764
-0.0839305
-0.0853032
-0.0790657
-0.0626745
-0.0348119
-0.00518456
0.0130131
0.0227777
0.0331891
0.0467107
0.0613684
0.0808085
0.102447
0.111198
0.0950476
0.0629191
0.0352035
0.0210129
0.0122245
-0.00339561
-0.0286905
-0.0560326
-0.0737402
-0.0737404
-0.0560332
-0.0286914
-0.00339663
0.0122235
0.0210119
0.0352028
0.0629187
0.0950477
0.111199
0.102447
0.0808086
0.0613683
0.0467105
0.0331891
0.0227781
0.0130138
-0.00518383
-0.0348116
-0.0626747
-0.0790661
-0.0853035
-0.0839306
-0.0742761
-0.0599497
-0.0474991
-0.0356066
-0.0239495
-0.0151232
-0.0107914
-0.00816717
-0.00462183
-0.00208163
-0.00183194
-0.00220005
-0.000876034
-0.000252662
-0.00119923
-0.000346404
0.000356066
-0.00143181
-0.00157621
-0.000329543
-0.000657626
0.000120811
0.000308251
-0.000913452
0.000126429
2.19367e-05
-0.000653734
-0.000875474
7.41029e-07
0.000424185
-0.000786871
0.000596345
7.84219e-05
-0.00164102
-0.000725316
-0.000583076
-0.000828068
-0.000162686
-0.00139421
-0.00260857
-0.00152933
-0.00174022
-0.00268404
-0.00208195
-0.00274288
-0.00589866
-0.00888141
-0.0107962
-0.0166412
-0.0276822
-0.0404278
-0.0522472
-0.0652168
-0.0814017
-0.091455
-0.0901398
-0.0798108
-0.0620469
-0.03459
-0.00561736
0.00986634
0.0147776
0.0228223
0.0396354
0.0572962
0.073935
0.0886747
0.0931992
0.0777849
0.0502226
0.0294395
0.0233952
0.0211865
0.00865903
-0.015705
-0.0417948
-0.0579787
-0.0579789
-0.0417954
-0.015706
0.00865761
0.0211849
0.0233938
0.0294386
0.0502223
0.0777852
0.0931998
0.0886754
0.0739356
0.0572966
0.0396354
0.0228219
0.0147776
0.00986688
-0.0056166
-0.0345897
-0.0620471
-0.0798112
-0.0901404
-0.0914555
-0.0814016
-0.0652163
-0.0522472
-0.0404282
-0.0276822
-0.0166405
-0.0107957
-0.00888165
-0.00589884
-0.00274257
-0.00208163
-0.00268406
-0.00174026
-0.00152935
-0.0026088
-0.00139429
-0.000162427
-0.000827897
-0.00058307
-0.000725446
-0.00164127
7.85149e-05
0.000596542
-0.000786953
0.000424276
7.57495e-07
-0.000875621
-0.000622964
0.000337768
0.000647012
-0.000958457
-0.000389708
-0.000782843
-0.00174971
-3.09041e-05
0.000481922
-0.00126519
-0.00161351
-0.00184574
-0.00290456
-0.00237611
-0.00227611
-0.00361989
-0.00462195
-0.00589866
-0.00834312
-0.0106344
-0.0136542
-0.0217612
-0.0331164
-0.0452074
-0.0570486
-0.0708447
-0.0873901
-0.096315
-0.0919045
-0.0773655
-0.0587064
-0.0336398
-0.00796703
0.00471961
0.00618935
0.0122248
0.0302704
0.0483015
0.0598593
0.0656616
0.0645346
0.0493965
0.0267561
0.0129062
0.0149118
0.0195981
0.0114931
-0.0102842
-0.0336956
-0.0476354
-0.0476355
-0.0336962
-0.0102855
0.0114913
0.0195959
0.0149098
0.0129049
0.0267558
0.0493968
0.0645352
0.0656623
0.0598601
0.0483023
0.0302707
0.0122245
0.00618893
0.00471975
-0.00796639
-0.0336392
-0.0587061
-0.0773656
-0.091905
-0.0963157
-0.0873903
-0.0708441
-0.057048
-0.0452076
-0.0331168
-0.0217609
-0.0136535
-0.0106342
-0.00834339
-0.00589885
-0.00462183
-0.00361972
-0.00227597
-0.00237605
-0.00290469
-0.00184593
-0.0016136
-0.0012651
0.000482278
-3.07057e-05
-0.00174996
-0.00078297
-0.000389695
-0.000958554
0.000647186
0.000337867
-0.000623083
-0.000397236
7.0234e-05
6.9915e-05
-0.00139049
-0.00117853
-0.000511601
-0.000936294
-0.000472201
-0.000676675
-0.00305578
-0.00293576
-0.0014193
-0.00264604
-0.00325305
-0.00332999
-0.00569841
-0.00816684
-0.00888141
-0.0106344
-0.0144751
-0.0204568
-0.0297243
-0.039575
-0.0514423
-0.0650197
-0.0800847
-0.095296
-0.10183
-0.0945301
-0.0764232
-0.0574648
-0.0359056
-0.0140533
-0.00212246
-0.0012948
0.00320057
0.0203315
0.0372564
0.0437823
0.0409836
0.0336977
0.0185856
0.00121835
-0.00535244
0.00451911
0.0161647
0.0135125
-0.00394612
-0.0231259
-0.0340013
-0.0340015
-0.0231266
-0.00394755
0.0135103
0.0161621
0.00451667
-0.00535403
0.0012179
0.018586
0.0336985
0.0409843
0.0437831
0.0372573
0.0203322
0.00320057
-0.00129521
-0.00212272
-0.0140531
-0.0359051
-0.0574642
-0.0764228
-0.0945303
-0.10183
-0.0952966
-0.0800844
-0.0650189
-0.0514419
-0.0395754
-0.0297247
-0.0204566
-0.0144745
-0.0106342
-0.00888165
-0.00816717
-0.00569841
-0.00332975
-0.00325281
-0.0026458
-0.00141915
-0.002936
-0.0030561
-0.000676552
-0.000471904
-0.000936202
-0.000511565
-0.00117861
-0.0013907
6.99881e-05
7.03098e-05
-0.000397319
-0.000558502
-0.00129311
-0.00103837
-0.000819478
-0.000521352
0.000431094
-0.00108427
-0.00313944
-0.00306261
-0.00418674
-0.00383433
-0.00230581
-0.00458288
-0.00649379
-0.00639464
-0.00844059
-0.0107913
-0.0107962
-0.0136542
-0.0204568
-0.0284634
-0.0372039
-0.0465537
-0.0612022
-0.0784024
-0.0945212
-0.106899
-0.110712
-0.101533
-0.0811426
-0.0621089
-0.0432892
-0.023801
-0.0100204
-0.0079173
-0.00526135
0.00909882
0.024638
0.0275801
0.0172366
0.00333127
-0.0122217
-0.0238345
-0.0226402
-0.00532227
0.0126922
0.0159698
0.00434144
-0.00905525
-0.0160299
-0.0160302
-0.00905618
0.00433982
0.0159675
0.0126894
-0.00532489
-0.022642
-0.0238352
-0.0122212
0.00333226
0.0172375
0.027581
0.0246389
0.00909975
-0.00526076
-0.00791717
-0.0100207
-0.0238013
-0.0432892
-0.0621084
-0.0811419
-0.101533
-0.110713
-0.1069
-0.0945217
-0.0784021
-0.0612014
-0.0465533
-0.0372043
-0.0284639
-0.0204566
-0.0136535
-0.0107957
-0.0107914
-0.00844074
-0.00639466
-0.00649382
-0.00458265
-0.00230533
-0.00383421
-0.004187
-0.00306288
-0.0031396
-0.00108414
0.000431443
-0.000521179
-0.000819532
-0.00103845
-0.00129326
-0.000558627
0.000320121
-0.000476342
-0.000290474
1.87166e-05
-0.00203838
-0.0020424
-0.00329051
-0.00521617
-0.0031801
-0.00368494
-0.0056829
-0.00597873
-0.00901396
-0.0115751
-0.0108822
-0.0121886
-0.0151235
-0.0166412
-0.0217612
-0.0297243
-0.0372039
-0.0450584
-0.0559543
-0.0741168
-0.0931084
-0.107947
-0.116312
-0.118248
-0.109224
-0.0889808
-0.0704373
-0.0537822
-0.0364242
-0.0214937
-0.0196279
-0.0206055
-0.0107542
0.0035282
0.00398591
-0.0131484
-0.0342009
-0.0500936
-0.0548581
-0.0449165
-0.0206363
0.00283827
0.0121903
0.00779775
0.00169773
-0.000563105
-0.00056349
0.00169659
0.00779594
0.012188
0.00283562
-0.0206389
-0.0449186
-0.0548592
-0.0500935
-0.0342
-0.0131473
0.00398672
0.00352876
-0.0107536
-0.0206048
-0.0196273
-0.0214936
-0.0364248
-0.0537828
-0.0704373
-0.0889802
-0.109224
-0.118248
-0.116312
-0.107948
-0.0931088
-0.0741163
-0.0559533
-0.045058
-0.0372043
-0.0297247
-0.0217609
-0.0166405
-0.0151232
-0.0121884
-0.0108823
-0.0115755
-0.00901417
-0.00597852
-0.00568257
-0.00368456
-0.00317996
-0.00521647
-0.00329068
-0.00204239
-0.00203834
1.89123e-05
-0.00029034
-0.000476317
0.000320143
0.00106827
-0.000345174
-0.0012025
-0.00120797
-0.00485133
-0.00451259
-0.00413036
-0.00592954
-0.00420604
-0.00628455
-0.0109843
-0.0117293
-0.0135789
-0.016429
-0.0164867
-0.0187635
-0.0239497
-0.0276822
-0.0331164
-0.039575
-0.0465537
-0.0559543
-0.0702836
-0.090638
-0.109051
-0.121912
-0.127377
-0.12902
-0.121187
-0.101298
-0.0810265
-0.0637632
-0.0474318
-0.0324107
-0.031429
-0.0353503
-0.0288977
-0.0147535
-0.0159975
-0.0393922
-0.0675735
-0.0830377
-0.0798535
-0.0607642
-0.0310057
-0.00395766
0.0106444
0.0140945
0.0160984
0.0189534
0.018953
0.0160971
0.0140926
0.0106422
-0.00396
-0.031008
-0.0607663
-0.0798549
-0.0830381
-0.0675728
-0.039391
-0.0159964
-0.0147531
-0.0288975
-0.0353499
-0.0314281
-0.0324099
-0.0474321
-0.0637641
-0.0810272
-0.101298
-0.121186
-0.129019
-0.127377
-0.121912
-0.109052
-0.0906382
-0.0702828
-0.0559533
-0.0465533
-0.0395754
-0.0331168
-0.0276822
-0.0239495
-0.018763
-0.0164863
-0.016429
-0.0135791
-0.0117295
-0.0109845
-0.00628413
-0.00420548
-0.00592943
-0.00413033
-0.00451274
-0.00485158
-0.00120786
-0.00120241
-0.00034506
0.00106844
0.000632141
-0.00254965
-0.0040281
-0.00280738
-0.00612419
-0.00545734
-0.00534779
-0.00983829
-0.0107572
-0.0133342
-0.017615
-0.0171137
-0.017864
-0.0223169
-0.0248032
-0.0287213
-0.0356064
-0.0404278
-0.0452074
-0.0514423
-0.0612022
-0.0741168
-0.090638
-0.109652
-0.125226
-0.136065
-0.13951
-0.140695
-0.132621
-0.111266
-0.0867175
-0.0676289
-0.0536715
-0.0415411
-0.0422797
-0.0477291
-0.0435467
-0.0300882
-0.0339989
-0.0635172
-0.097811
-0.111275
-0.0990695
-0.0709857
-0.037598
-0.00903902
0.00973847
0.0211134
0.0313913
0.0393209
0.0393205
0.03139
0.0211115
0.00973645
-0.00904096
-0.0375999
-0.0709876
-0.0990713
-0.111276
-0.097811
-0.0635162
-0.0339976
-0.0300876
-0.0435468
-0.0477291
-0.0422789
-0.0415399
-0.0536709
-0.0676292
-0.0867184
-0.111267
-0.132621
-0.140695
-0.139509
-0.136065
-0.125226
-0.109652
-0.0906382
-0.0741163
-0.0612014
-0.0514419
-0.0452076
-0.0404282
-0.0356066
-0.028721
-0.0248027
-0.0223165
-0.0178635
-0.0171136
-0.0176154
-0.0133344
-0.0107571
-0.00983815
-0.00534734
-0.00545716
-0.00612432
-0.00280727
-0.00402825
-0.00254975
0.00063229
0.000427757
-0.00364608
-0.00563623
-0.0041437
-0.00820277
-0.00913776
-0.0103929
-0.0167217
-0.0189083
-0.0205103
-0.0245436
-0.0253761
-0.0273818
-0.0339639
-0.0379905
-0.0414331
-0.0474989
-0.0522472
-0.0570486
-0.0650197
-0.0784024
-0.0931084
-0.109051
-0.125226
-0.139274
-0.150562
-0.153953
-0.154375
-0.144181
-0.119754
-0.0900276
-0.0697673
-0.0596793
-0.0514239
-0.0516001
-0.054747
-0.0506298
-0.0382775
-0.0449723
-0.0783761
-0.115238
-0.123755
-0.101361
-0.0647228
-0.0294056
-0.00105594
0.0207912
0.0395753
0.0574884
0.0699027
0.0699024
0.0574873
0.0395737
0.0207896
-0.00105734
-0.0294069
-0.0647243
-0.101363
-0.123757
-0.115238
-0.0783756
-0.044971
-0.0382765
-0.0506297
-0.0547473
-0.0515999
-0.0514229
-0.0596783
-0.0697669
-0.0900281
-0.119755
-0.144183
-0.154376
-0.153952
-0.150562
-0.139274
-0.125226
-0.109052
-0.0931088
-0.0784021
-0.0650189
-0.057048
-0.0522472
-0.0474991
-0.0414333
-0.0379906
-0.0339638
-0.0273812
-0.0253756
-0.0245436
-0.0205104
-0.0189085
-0.0167219
-0.0103925
-0.00913745
-0.00820268
-0.0041434
-0.00563638
-0.00364621
0.000427937
0.000373695
-0.00394446
-0.00704109
-0.00710175
-0.0129331
-0.0164265
-0.0187239
-0.0246222
-0.0266585
-0.0277478
-0.0335661
-0.0383244
-0.0422968
-0.0494688
-0.0534557
-0.0553385
-0.0599499
-0.0652168
-0.0708447
-0.0800847
-0.0945212
-0.107947
-0.121912
-0.136065
-0.150562
-0.163124
-0.165753
-0.162442
-0.146889
-0.118154
-0.0842735
-0.0647665
-0.0593459
-0.0544763
-0.0516417
-0.0506175
-0.0470613
-0.0384125
-0.0487648
-0.0838105
-0.119898
-0.121876
-0.0900604
-0.0468099
-0.0117716
0.0145028
0.0378153
0.0624845
0.0863483
0.102027
0.102027
0.0863476
0.0624835
0.0378142
0.0145019
-0.0117723
-0.0468108
-0.090062
-0.121878
-0.119899
-0.0838109
-0.048764
-0.0384112
-0.0470607
-0.0506176
-0.051642
-0.054476
-0.059345
-0.0647653
-0.0842731
-0.118155
-0.146891
-0.162444
-0.165754
-0.163123
-0.150562
-0.136065
-0.121912
-0.107948
-0.0945217
-0.0800844
-0.0708441
-0.0652163
-0.0599497
-0.0553386
-0.0534562
-0.0494692
-0.0422968
-0.0383241
-0.0335657
-0.0277473
-0.0266584
-0.0246225
-0.0187239
-0.0164264
-0.0129331
-0.00710132
-0.00704107
-0.00394445
0.000373928
-0.000320384
-0.00543972