/*--------------------------------*- C++ -*----------------------------------*\
  =========                 |
  \\      /  F ield         | OpenFOAM: The Open Source CFD Toolbox
   \\    /   O peration     | Website:  https://openfoam.org
    \\  /    A nd           | Version:  dev
     \\/     M anipulation  |
\*---------------------------------------------------------------------------*/
FoamFile
{
    format      ascii;
    class       volScalarField;
    location    "50";
    object      h_0;
}
// * * * * * * * * * * * * * * * * * * * * * * * * * * * * * * * * * * * * * //

dimensions      [0 1 0 0 0 0 0];

internalField   nonuniform List<scalar> 
10000
(
0.00021725
0.000229061
-6.72185e-05
-0.000281145
-0.000328169
-0.000243608
-9.34997e-05
0.000312305
0.00025723
0.000279714
0.00064135
-0.00011238
-0.000500395
0.000168986
0.000127572
-0.000344933
-0.000652071
-0.000872468
-0.000631665
-0.000421984
-0.000583462
0.000300394
0.00104926
0.000613048
0.000438214
0.000405961
-0.000287539
-0.00240232
-0.00408639
-0.00525441
-0.00661308
-0.00722759
-0.00649385
-0.00399404
-0.000625645
0.0037649
0.00743093
0.00869146
0.00691698
0.0041947
0.00260778
0.00268944
0.00317233
0.00225629
-0.000911285
-0.00528112
-0.00798132
-0.00674854
-0.00227066
0.00171494
0.00171493
-0.00227069
-0.00674856
-0.00798132
-0.00528109
-0.000911256
0.00225629
0.0031723
0.00268934
0.00260764
0.00419456
0.00691688
0.00869138
0.00743081
0.0037647
-0.000625902
-0.0039943
-0.0064941
-0.00722775
-0.00661315
-0.0052544
-0.00408634
-0.00240217
-0.000287269
0.000406199
0.000438401
0.0006132
0.00104943
0.000300416
-0.000583587
-0.000422071
-0.000631787
-0.000872615
-0.000652165
-0.000344962
0.000127667
0.000169046
-0.000500509
-0.00011239
0.000641455
0.000279741
0.000257295
0.000312367
-9.349e-05
-0.000243637
-0.000328287
-0.000281222
-6.72154e-05
0.000229138
0.000217326
0.000229061
0.000163148
-0.00010171
7.82066e-05
0.000258265
-0.000248314
-0.000349389
0.000483426
-0.000309434
-0.000647156
0.000614938
-0.000129405
-0.000572108
0.000355592
0.000198952
-0.000104736
1.81733e-05
1.26935e-05
0.000345058
6.56505e-05
-0.00128172
-0.000452871
-0.000335733
-0.00256426
-0.00361998
-0.00391064
-0.00543574
-0.0100078
-0.0127546
-0.0145563
-0.0165424
-0.0163807
-0.012454
-0.00401747
0.00634568
0.0194973
0.0299135
0.0332396
0.0273113
0.0186718
0.0129373
0.0119191
0.0119114
0.00804863
-0.00202915
-0.0153231
-0.0236683
-0.0206844
-0.00827387
0.00289778
0.00289778
-0.00827386
-0.0206844
-0.0236683
-0.015323
-0.00202904
0.00804874
0.0119114
0.011919
0.0129372
0.0186717
0.0273115
0.0332399
0.0299138
0.0194974
0.00634558
-0.00401759
-0.0124542
-0.0163807
-0.0165424
-0.0145563
-0.0127547
-0.0100079
-0.00543559
-0.00391063
-0.0036201
-0.00256437
-0.000335626
-0.000452848
-0.00128187
6.57213e-05
0.000345155
1.27138e-05
1.81765e-05
-0.000104764
0.000199027
0.000355648
-0.00057225
-0.000129375
0.000615057
-0.000647305
-0.000309443
0.000483524
-0.000349467
-0.000248355
0.000258304
7.82351e-05
-0.000101738
0.000163194
0.000229144
-6.72185e-05
-0.00010171
-0.000338568
-2.60454e-05
0.000815844
-7.62908e-05
-0.000447025
0.000669848
-0.000489974
-0.000980315
0.000316671
-0.000155404
-0.000293073
0.000153996
-0.000195606
-0.000253708
0.000121865
0.000429302
0.000647883
7.1486e-05
-0.00101371
-0.000254604
-0.0011823
-0.00402066
-0.00558075
-0.00699319
-0.0105637
-0.017122
-0.0211118
-0.0249402
-0.0282654
-0.027434
-0.0200496
-0.00643494
0.0104593
0.0315966
0.0485237
0.0542305
0.0455995
0.0326587
0.0236479
0.0213579
0.0202131
0.0134002
-0.00251989
-0.022909
-0.0357757
-0.0315533
-0.01315
0.00351288
0.00351294
-0.0131498
-0.0315531
-0.0357756
-0.022909
-0.00251975
0.0134004
0.0202132
0.021358
0.0236479
0.0326587
0.0455997
0.0542309
0.048524
0.0315967
0.0104592
-0.00643512
-0.0200499
-0.0274342
-0.0282655
-0.0249403
-0.0211119
-0.0171222
-0.0105636
-0.00699318
-0.00558089
-0.00402082
-0.00118221
-0.000254463
-0.00101378
7.1563e-05
0.00064806
0.000429397
0.000121885
-0.000253755
-0.000195643
0.000154014
-0.000293117
-0.000155372
0.000316764
-0.000980525
-0.000490045
0.000670014
-0.000447151
-7.63126e-05
0.00081609
-2.60292e-05
-0.000338709
-0.000101748
-6.72157e-05
-0.000281145
7.82066e-05
-2.60454e-05
-0.000625137
1.11616e-05
-0.000216027
-0.000266808
0.00047046
-3.07843e-05
0.000214189
0.000684784
-0.00030107
-0.000523495
8.69716e-05
-4.61416e-05
-0.000700888
-0.000902488
-0.000787147
-0.000978825
-0.00140973
-0.000833789
7.01012e-07
-0.00122952
-0.00279474
-0.00408193
-0.00703549
-0.0135391
-0.0211724
-0.0274265
-0.0347629
-0.0405956
-0.0397727
-0.0293948
-0.0123911
0.0102031
0.0371699
0.0598773
0.0676755
0.058489
0.0430901
0.0319217
0.0278998
0.0247758
0.0150393
-0.00528515
-0.0302099
-0.0460605
-0.0412693
-0.0196629
7.29568e-05
7.31314e-05
-0.0196625
-0.0412689
-0.0460604
-0.0302099
-0.00528514
0.0150394
0.024776
0.0278998
0.0319215
0.0430899
0.0584889
0.0676757
0.0598774
0.0371697
0.0102026
-0.0123916
-0.0293953
-0.0397731
-0.0405958
-0.0347629
-0.0274263
-0.0211723
-0.0135389
-0.00703506
-0.00408162
-0.00279463
-0.00122941
8.94131e-07
-0.000833844
-0.00140995
-0.000978928
-0.000787232
-0.000902602
-0.000700935
-4.60767e-05
8.70498e-05
-0.000523574
-0.000301142
0.000684954
0.000214241
-3.08326e-05
0.000470585
-0.000266827
-0.00021609
1.11791e-05
-0.000625241
-2.60326e-05
7.82337e-05
-0.000281219
-0.000328169
0.000258265
0.000815844
1.11616e-05
-0.000351808
-0.000108703
-2.33029e-05
-0.000479235
-0.000352387
2.27512e-06
-0.000334153
-0.000242956
-0.000176181
0.000101415
0.000212687
-0.000184862
0.000321511
0.000599315
-0.000384333
-0.00114487
-0.000489545
-0.00202384
-0.00483789
-0.00606889
-0.00816106
-0.0129102
-0.0210182
-0.0273347
-0.0342294
-0.0427019
-0.0482383
-0.0450967
-0.030419
-0.00949151
0.0187752
0.0498447
0.0765351
0.08577
0.0771825
0.0601471
0.0462725
0.0384882
0.0311079
0.0170323
-0.00748731
-0.0355593
-0.0536319
-0.04979
-0.028487
-0.0086463
-0.00864601
-0.0284863
-0.0497893
-0.0536316
-0.0355593
-0.00748736
0.0170324
0.031108
0.0384883
0.0462725
0.060147
0.0771826
0.0857703
0.0765355
0.0498448
0.0187751
-0.00949169
-0.0304191
-0.045097
-0.0482385
-0.0427018
-0.0342292
-0.0273347
-0.0210184
-0.0129101
-0.00816098
-0.00606902
-0.00483815
-0.00202381
-0.000489374
-0.00114496
-0.000384319
0.00059951
0.0003216
-0.0001849
0.000212723
0.000101476
-0.000176184
-0.000243048
-0.000334187
2.38416e-06
-0.000352459
-0.000479333
-2.32106e-05
-0.000108732
-0.000351975
1.11807e-05
0.000816092
0.000258312
-0.000328284
-0.000243608
-0.000248314
-7.62908e-05
-0.000216027
-0.000108703
0.00049374
0.000225074
-0.00063651
0.000222022
8.4484e-05
-0.00111892
-0.0001013
0.000280462
-0.000453307
-0.000754777
-0.000617086
0.000121914
5.69906e-05
-0.000789344
-0.000490502
0.000440022
-0.00203868
-0.00447596
-0.00536859
-0.00907534
-0.0163527
-0.0258115
-0.0331251
-0.0428584
-0.053325
-0.0590244
-0.0543931
-0.0373719
-0.0124298
0.0204921
0.0547718
0.0839372
0.0960879
0.0910037
0.0754282
0.0605036
0.0494437
0.0382057
0.0203162
-0.00660593
-0.0356171
-0.0540722
-0.0518514
-0.033429
-0.016013
-0.0160126
-0.0334282
-0.0518505
-0.0540718
-0.035617
-0.00660596
0.0203163
0.0382059
0.0494439
0.0605037
0.0754281
0.0910037
0.0960881
0.0839374
0.0547718
0.0204919
-0.0124301
-0.0373722
-0.0543936
-0.0590249
-0.0533252
-0.0428583
-0.033125
-0.0258118
-0.0163527
-0.00907504
-0.0053684
-0.0044761
-0.00203867
0.000440374
-0.000490456
-0.000789466
5.70792e-05
0.000122044
-0.000617173
-0.000754952
-0.00045332
0.000280651
-0.000101316
-0.00111915
8.45955e-05
0.000222091
-0.000636704
0.000225166
0.000493928
-0.000108727
-0.000216089
-7.63189e-05
-0.000248356
-0.000243642
-9.34997e-05
-0.000349389
-0.000447025
-0.000266808
-2.33029e-05
0.000225074
-0.00020441
-0.000487351
0.00042928
0.000246081
-0.000486235
0.000227562
0.00023093
-0.000752332
-0.000660892
-4.13956e-05
-0.000659864
-0.00165366
-0.00174443
-0.000938594
-0.00111221
-0.00330766
-0.00410167
-0.00529603
-0.0103472
-0.0186191
-0.0273804
-0.0367837
-0.0492702
-0.0602111
-0.0652804
-0.0596933
-0.0423293
-0.013584
0.0219839
0.0573313
0.0860734
0.100912
0.100164
0.087147
0.0714454
0.0567949
0.0415095
0.0194678
-0.00932914
-0.0384311
-0.0563322
-0.0565178
-0.0430929
-0.0301616
-0.0301612
-0.0430919
-0.0565168
-0.0563316
-0.0384309
-0.00932915
0.0194678
0.0415095
0.0567948
0.0714453
0.0871469
0.100164
0.100912
0.0860733
0.0573312
0.0219836
-0.0135844
-0.0423296
-0.0596937
-0.0652808
-0.0602113
-0.04927
-0.0367833
-0.0273802
-0.018619
-0.0103468
-0.00529558
-0.00410163
-0.00330784
-0.00111209
-0.000938505
-0.00174467
-0.00165392
-0.000659813
-4.12496e-05
-0.00066101
-0.000752444
0.000231091
0.000227649
-0.000486352
0.000246151
0.000429428
-0.000487453
-0.000204504
0.000225162
-2.32084e-05
-0.000266829
-0.000447154
-0.000349464
-9.34906e-05
0.000312305
0.000483426
0.000669848
0.00047046
-0.000479235
-0.00063651
-0.000487351
-0.000171097
-1.58225e-05
-0.000707484
-0.000393158
0.000248726
-0.000368978
-0.00077305
0.00031819
0.000929525
-0.000342398
-0.000703316
9.68774e-06
-0.000456814
-0.00312099
-0.00516793
-0.0058644
-0.0098042
-0.0166779
-0.0245139
-0.0321003
-0.0436394
-0.0569467
-0.0652884
-0.0672383
-0.0599159
-0.0413107
-0.00830012
0.0296242
0.064695
0.0916855
0.108862
0.112629
0.102814
0.0865045
0.0684849
0.0487154
0.0220761
-0.00922636
-0.0384195
-0.0558459
-0.059042
-0.0521343
-0.0449898
-0.0449895
-0.0521334
-0.059041
-0.0558453
-0.0384191
-0.0092262
0.0220761
0.0487154
0.0684848
0.0865044
0.102814
0.112629
0.108862
0.0916856
0.0646952
0.0296244
-0.0083001
-0.0413109
-0.059916
-0.0672384
-0.0652886
-0.0569468
-0.0436392
-0.0321001
-0.0245142
-0.0166781
-0.00980406
-0.00586429
-0.00516823
-0.00312116
-0.000456518
9.894e-06
-0.000703438
-0.000342423
0.000929822
0.000318319
-0.000773246
-0.00036906
0.000248882
-0.000393176
-0.000707662
-1.57356e-05
-0.000170966
-0.000487457
-0.000636706
-0.000479333
0.000470585
0.000670019
0.000483529
0.000312367
0.00025723
-0.000309434
-0.000489974
-3.07843e-05
-0.000352387
0.000222022
0.00042928
-1.58225e-05
-0.000154237
-0.000568441
-0.000243241
-0.000214486
-0.000901516
-0.000646338
-6.60695e-05
-0.000721128
-0.00159072
-0.000568223
0.000476384
-0.00070721
-0.00304683
-0.00312029
-0.00414429
-0.0107071
-0.0187865
-0.0264588
-0.0358531
-0.051302
-0.0661604
-0.0730693
-0.0731692
-0.0656409
-0.0458491
-0.0101404
0.0295955
0.0637423
0.0895793
0.109422
0.11873
0.114301
0.0999709
0.0812784
0.0584717
0.0285205
-0.0048196
-0.033244
-0.0497982
-0.0555712
-0.055395
-0.0542452
-0.0542449
-0.0553942
-0.0555704
-0.0497975
-0.0332434
-0.00481917
0.0285208
0.0584716
0.0812781
0.0999707
0.114301
0.11873
0.109422
0.0895791
0.0637424
0.0295956
-0.0101406
-0.0458496
-0.0656412
-0.0731694
-0.0730696
-0.0661608
-0.051302
-0.0358527
-0.0264587
-0.0187867
-0.010707
-0.00414372
-0.00312015
-0.00304709
-0.000707092
0.00047674
-0.000568209
-0.00159103
-0.000721205
-6.58703e-05
-0.000646363
-0.000901724
-0.000214414
-0.00024313
-0.00056859
-0.000154313
-1.57356e-05
0.00042943
0.000222096
-0.000352459
-3.08338e-05
-0.000490045
-0.000309449
0.000257293
0.000279714
-0.000647156
-0.000980315
0.000214189
2.27512e-06
8.4484e-05
0.000246081
-0.000707484
-0.000568441
0.000360591
0.000150685
-0.000456242
-0.000191486
4.02206e-05
-0.000381074
-0.00118581
-0.001415
-0.000812253
-0.00128251
-0.00307728
-0.00416593
-0.00365475
-0.00627326
-0.0133042
-0.0203851
-0.0275691
-0.0386972
-0.055502
-0.0694017
-0.0748432
-0.0732972
-0.0650954
-0.0442793
-0.0084769
0.0305633
0.0622897
0.0856484
0.105571
0.118307
0.118966
0.107653
0.0889896
0.0630577
0.029484
-0.0062189
-0.0342305
-0.0503303
-0.0587637
-0.0650923
-0.0696456
-0.0696455
-0.0650919
-0.0587631
-0.0503296
-0.0342297
-0.00621832
0.0294843
0.0630575
0.0889891
0.107652
0.118966
0.118307
0.10557
0.0856481
0.0622897
0.0305635
-0.00847692
-0.0442797
-0.0650957
-0.0732971
-0.0748432
-0.0694021
-0.0555021
-0.0386966
-0.0275685
-0.0203852
-0.0133043
-0.00627285
-0.00365437
-0.00416619
-0.00307761
-0.00128243
-0.000812081
-0.00141515
-0.00118605
-0.000381001
4.04186e-05
-0.000191518
-0.000456358
0.000150834
0.000360761
-0.000568588
-0.000707662
0.000246149
8.45965e-05
2.38298e-06
0.000214239
-0.000980524
-0.000647307
0.000279741
0.00064135
0.000614938
0.000316671
0.000684784
-0.000334153
-0.00111892
-0.000486235
-0.000393158
-0.000243241
0.000150685
-0.000739101
-0.000793876
0.000213985
-0.000239408
-0.000615369
-5.22842e-05
0.000365001
-0.00015644
-0.00160038
-0.00289425
-0.00377638
-0.00563955
-0.0109445
-0.0175374
-0.0244112
-0.0334368
-0.0464086
-0.0619237
-0.073179
-0.077318
-0.073095
-0.061478
-0.0382467
-0.00308426
0.0347925
0.065193
0.0864254
0.105063
0.120006
0.126454
0.119843
0.101976
0.0728923
0.035644
-0.00217266
-0.0300464
-0.0462637
-0.0575882
-0.0698028
-0.0793328
-0.0793328
-0.0698027
-0.0575879
-0.046263
-0.0300455
-0.00217189
0.0356444
0.0728922
0.101976
0.119842
0.126453
0.120006
0.105063
0.0864254
0.0651933
0.0347929
-0.00308396
-0.0382468
-0.0614782
-0.0730949
-0.0773179
-0.0731792
-0.0619241
-0.0464085
-0.0334364
-0.0244112
-0.0175379
-0.0109447
-0.00563922
-0.00377625
-0.00289448
-0.00160047
-0.000156181
0.000365262
-5.2282e-05
-0.000615488
-0.000239352
0.000214138
-0.000794019
-0.000739256
0.000150833
-0.000243129
-0.000393176
-0.000486356
-0.00111915
-0.000334187
0.000684954
0.000316767
0.000615061
0.000641455
-0.00011238
-0.000129405
-0.000155404
-0.00030107
-0.000242956
-0.0001013
0.000227562
0.000248726
-0.000214486
-0.000456242
-0.000793876
-0.000639178
-0.000274012
-0.000985752
-0.00130951
-0.000576821
-0.000367684
-0.00141521
-0.00184351
-0.00139153
-0.00228524
-0.00595021
-0.0116444
-0.0169678
-0.0252091
-0.0381598
-0.0532107
-0.0671451
-0.0778159
-0.082901
-0.0771262
-0.0616543
-0.0367929
-0.00402509
0.0320677
0.061698
0.0814135
0.0980041
0.11534
0.129018
0.12939
0.113513
0.0822947
0.042836
0.00479153
-0.0219908
-0.0382421
-0.0522088
-0.0691699
-0.0825028
-0.0825029
-0.0691701
-0.0522087
-0.0382415
-0.0219899
0.0047924
0.0428365
0.0822947
0.113513
0.129389
0.129017
0.11534
0.098004
0.0814137
0.0616982
0.0320679
-0.00402499
-0.0367931
-0.0616547
-0.0771265
-0.0829011
-0.077816
-0.0671456
-0.053211
-0.0381595
-0.0252086
-0.0169677
-0.0116446
-0.00595001
-0.00228476
-0.00139137
-0.0018437
-0.0014153
-0.000367537
-0.000576755
-0.00130966
-0.000985882
-0.000273917
-0.000639111
-0.000794019
-0.000456361
-0.000214414
0.000248884
0.000227649
-0.000101314
-0.000243047
-0.000301143
-0.000155372
-0.000129376
-0.000112391
-0.000500395
-0.000572108
-0.000293073
-0.000523495
-0.000176181
0.000280462
0.00023093
-0.000368978
-0.000901516
-0.000191486
0.000213985
-0.000274012
-0.000230819
-0.000408275
-0.000972906
-0.000874731
-0.00119905
-0.00260797
-0.00288871
-0.00263052
-0.00459353
-0.00900303
-0.013499
-0.0177458
-0.0272712
-0.0421593
-0.0564345
-0.0675191
-0.0775204
-0.0829178
-0.075251
-0.055897
-0.0307531
-0.00191784
0.0304387
0.0576373
0.0742326
0.087031
0.105474
0.125249
0.13184
0.116784
0.0832408
0.0423649
0.00564795
-0.0195758
-0.0362265
-0.0530858
-0.0738881
-0.0899393
-0.0899396
-0.0738886
-0.053086
-0.0362261
-0.019575
0.00564865
0.0423653
0.0832407
0.116784
0.131839
0.125248
0.105473
0.0870307
0.0742329
0.0576377
0.030439
-0.00191777
-0.0307531
-0.0558972
-0.0752514
-0.082918
-0.0775202
-0.0675191
-0.0564348
-0.0421593
-0.0272706
-0.0177453
-0.0134992
-0.00900324
-0.00459332
-0.00263029
-0.00288884
-0.00260821
-0.00119908
-0.000874678
-0.000972904
-0.000408292
-0.000230825
-0.000273914
0.000214139
-0.000191519
-0.000901722
-0.000369059
0.00023109
0.000280652
-0.000176185
-0.000523576
-0.000293117
-0.000572252
-0.000500509
0.000168986
0.000355592
0.000153996
8.69716e-05
0.000101415
-0.000453307
-0.000752332
-0.00077305
-0.000646338
4.02206e-05
-0.000239408
-0.000985752
-0.000408275
-4.63196e-05
-0.000616307
-0.000409352
-0.000243635
-0.00151494
-0.00233872
-0.00321125
-0.00646245
-0.0115108
-0.016315
-0.0221967
-0.0338655
-0.0493402
-0.0623281
-0.0713691
-0.079849
-0.0834155
-0.0722514
-0.0485247
-0.0218946
0.00444024
0.0330666
0.0575213
0.0713399
0.0817129
0.101271
0.126012
0.13695
0.121795
0.0861696
0.0454138
0.0116744
-0.0112883
-0.028678
-0.0486355
-0.0725358
-0.0903268
-0.0903271
-0.0725364
-0.048636
-0.0286779
-0.0112878
0.0116748
0.0454139
0.0861695
0.121795
0.13695
0.126011
0.10127
0.0817126
0.0713403
0.0575221
0.0330671
0.00444052
-0.0218943
-0.0485246
-0.0722517
-0.0834158
-0.0798488
-0.0713689
-0.0623284
-0.0493407
-0.0338653
-0.0221962
-0.0163151
-0.0115112
-0.00646248
-0.00321101
-0.00233865
-0.00151496
-0.000243523
-0.000409274
-0.000616284
-4.62441e-05
-0.000408292
-0.00098588
-0.000239353
4.04177e-05
-0.000646362
-0.00077325
-0.000752446
-0.000453319
0.000101474
8.7051e-05
0.000154017
0.000355647
0.000169048
0.000127572
0.000198952
-0.000195606
-4.61416e-05
0.000212687
-0.000754777
-0.000660892
0.00031819
-6.60695e-05
-0.000381074
-0.000615369
-0.00130951
-0.000972906
-0.000616307
-0.0013415
-0.00125552
-0.000885391
-0.00174768
-0.00226352
-0.00330569
-0.00635792
-0.010798
-0.0163595
-0.0246558
-0.0378293
-0.0532566
-0.066742
-0.0763811
-0.0840542
-0.0857155
-0.0726144
-0.0466541
-0.0187458
0.00527409
0.0290855
0.049691
0.0622524
0.072907
0.0942996
0.122341
0.135882
0.120947
0.0852365
0.0474826
0.0192186
0.000213311
-0.0172292
-0.0396228
-0.0655503
-0.0840388
-0.0840392
-0.0655509
-0.0396233
-0.0172294
0.000213465
0.0192187
0.0474825
0.0852364
0.120947
0.135882
0.122341
0.0942989
0.0729065
0.0622526
0.0496916
0.029086
0.00527434
-0.0187456
-0.0466541
-0.0726149
-0.0857161
-0.0840544
-0.0763809
-0.0667421
-0.053257
-0.0378294
-0.0246553
-0.0163592
-0.0107981
-0.00635794
-0.00330545
-0.00226337
-0.00174772
-0.000885352
-0.0012555
-0.00134157
-0.000616287
-0.000972906
-0.00130966
-0.00061549
-0.000381002
-6.58677e-05
0.000318317
-0.000661009
-0.00075495
0.000212721
-4.60754e-05
-0.000195642
0.000199025
0.000127668
-0.000344933
-0.000104736
-0.000253708
-0.000700888
-0.000184862
-0.000617086
-4.13956e-05
0.000929525
-0.000721128
-0.00118581
-5.22842e-05
-0.000576821
-0.000874731
-0.000409352
-0.00125552
-0.00210681
-0.00218756
-0.00267619
-0.00361352
-0.00568471
-0.00840462
-0.0121161
-0.0186721
-0.028593
-0.0412574
-0.0551367
-0.0689761
-0.0790376
-0.0843336
-0.0828305
-0.0684921
-0.0415695
-0.0128846
0.00818685
0.0249726
0.0401084
0.0521535
0.0642035
0.0856363
0.112504
0.1251
0.109567
0.0749931
0.0416741
0.020103
0.0058502
-0.0110501
-0.0353023
-0.0623795
-0.0808198
-0.0808201
-0.0623802
-0.035303
-0.0110506
0.00584978
0.0201026
0.0416737
0.0749928
0.109567
0.1251
0.112504
0.0856359
0.064203
0.0521533
0.0401087
0.0249731
0.00818733
-0.0128843
-0.0415695
-0.0684925
-0.082831
-0.0843338
-0.0790374
-0.0689758
-0.0551368
-0.0412576
-0.0285928
-0.0186716
-0.0121159
-0.00840477
-0.00568471
-0.00361334
-0.00267621
-0.00218772
-0.00210689
-0.0012555
-0.000409276
-0.000874676
-0.000576753
-5.22846e-05
-0.00118604
-0.000721202
0.000929821
-4.1248e-05
-0.000617172
-0.000184904
-0.000700935
-0.000253755
-0.000104765
-0.00034496
-0.000652071
1.81733e-05
0.000121865
-0.000902488
0.000321511
0.000121914
-0.000659864
-0.000342398
-0.00159072
-0.001415
0.000365001
-0.000367684
-0.00119905
-0.000243635
-0.000885391
-0.00218756
-0.00178815
-0.00205332
-0.00460239
-0.00811601
-0.0107052
-0.0150281
-0.0238624
-0.0354696
-0.0473109
-0.0597783
-0.0741498
-0.0838611
-0.0853456
-0.0792656
-0.0629344
-0.0350706
-0.0054633
0.0127506
0.022645
0.0331591
0.0466042
0.0611441
0.0806218
0.102444
0.111354
0.0952746
0.063136
0.0353463
0.0210667
0.0123074
-0.00312911
-0.0282207
-0.0554926
-0.073229
-0.0732292
-0.0554932
-0.0282216
-0.00313014
0.0123064
0.0210657
0.0353456
0.0631357
0.0952747
0.111354
0.102444
0.0806219
0.061144
0.046604
0.0331592
0.0226454
0.0127514
-0.00546257
-0.0350703
-0.0629345
-0.079266
-0.0853459
-0.0838612
-0.0741495
-0.0597781
-0.0473112
-0.0354699
-0.0238621
-0.0150277
-0.0107053
-0.00811633
-0.00460228
-0.00205299
-0.00178811
-0.00218771
-0.000885351
-0.000243524
-0.00119907
-0.000367536
0.000365258
-0.00141515
-0.00159103
-0.000342427
-0.00065981
0.000122045
0.000321597
-0.0009026
0.000121884
1.81752e-05
-0.000652162
-0.000872468
1.26935e-05
0.000429302
-0.000787147
0.000599315
5.69906e-05
-0.00165366
-0.000703316
-0.000568223
-0.000812253
-0.00015644
-0.00141521
-0.00260797
-0.00151494
-0.00174768
-0.00267619
-0.00205332
-0.00274323
-0.00588691
-0.00880774
-0.0106884
-0.016534
-0.0275615
-0.0402188
-0.051985
-0.0649993
-0.0812619
-0.0913681
-0.090155
-0.0800121
-0.0623317
-0.0348619
-0.00588819
0.00958336
0.014611
0.0227877
0.0395401
0.0570372
0.0736723
0.0886221
0.0933282
0.0779321
0.0502618
0.0293828
0.0233356
0.0212869
0.00902501
-0.0151289
-0.0411906
-0.0574417
-0.0574419
-0.0411912
-0.0151299
0.00902359
0.0212853
0.0233341
0.0293819
0.0502615
0.0779324
0.0933288
0.0886228
0.0736729
0.0570376
0.0395401
0.0227874
0.0146109
0.00958389
-0.00588742
-0.0348616
-0.0623318
-0.0800126
-0.0901556
-0.0913685
-0.0812619
-0.0649988
-0.051985
-0.0402192
-0.0275616
-0.0165333
-0.0106879
-0.00880797
-0.00588709
-0.00274293
-0.00205299
-0.00267621
-0.00174772
-0.00151496
-0.00260821
-0.0014153
-0.000156184
-0.000812078
-0.000568211
-0.000703442
-0.00165391
5.70783e-05
0.00059951
-0.000787227
0.000429394
1.27123e-05
-0.000872612
-0.000631665
0.000345058
0.000647883
-0.000978825
-0.000384333
-0.000789344
-0.00174443
9.68774e-06
0.000476384
-0.00128251
-0.00160038
-0.00184351
-0.00288871
-0.00233872
-0.00226352
-0.00361352
-0.00460239
-0.00588691
-0.00829729
-0.0105477
-0.0135619
-0.0216621
-0.0329707
-0.0449683
-0.0567842
-0.0706372
-0.0872663
-0.0962256
-0.0918924
-0.0775338
-0.05897
-0.033871
-0.00814279
0.00454951
0.00613276
0.0122999
0.0302888
0.0481178
0.0596459
0.0656743
0.0647406
0.0495511
0.0266969
0.0127209
0.0148013
0.0197551
0.0119663
-0.0096125
-0.0330292
-0.0470566
-0.0470568
-0.0330298
-0.00961372
0.0119645
0.0197529
0.0147992
0.0127197
0.0266966
0.0495514
0.0647412
0.065675
0.0596467
0.0481186
0.0302891
0.0122996
0.00613233
0.00454963
-0.00814216
-0.0338704
-0.0589698
-0.0775339
-0.0918929
-0.0962263
-0.0872665
-0.0706365
-0.0567837
-0.0449685
-0.0329712
-0.0216619
-0.0135612
-0.0105474
-0.00829756
-0.0058871
-0.00460228
-0.00361334
-0.00226337
-0.00233866
-0.00288884
-0.0018437
-0.00160047
-0.00128242
0.000476739
9.89364e-06
-0.00174467
-0.000789472
-0.000384321
-0.000978924
0.000648057
0.000345158
-0.000631785
-0.000421984
6.56505e-05
7.1486e-05
-0.00140973
-0.00114487
-0.000490502
-0.000938594
-0.000456814
-0.00070721
-0.00307728
-0.00289425
-0.00139153
-0.00263052
-0.00321125
-0.00330569
-0.00568471
-0.00811601
-0.00880774
-0.0105477
-0.0143958
-0.0203688
-0.029592
-0.0393819
-0.051196
-0.0647826
-0.0798867
-0.0951727
-0.101736
-0.094505
-0.0765715
-0.0577276
-0.0361199
-0.0141396
-0.00216376
-0.00124973
0.00333364
0.020408
0.0371328
0.0436332
0.04107
0.0339778
0.0187522
0.00109071
-0.00562076
0.00440208
0.016401
0.0140919
-0.00318895
-0.0223911
-0.033354
-0.0333542
-0.0223918
-0.00319037
0.0140898
0.0163984
0.00439963
-0.00562237
0.00109026
0.0187526
0.0339785
0.0410707
0.043634
0.0371337
0.0204087
0.00333366
-0.00125014
-0.00216402
-0.0141394
-0.0361194
-0.057727
-0.0765711
-0.0945052
-0.101737
-0.0951733
-0.0798864
-0.0647818
-0.0511956
-0.0393822
-0.0295925
-0.0203686
-0.0143952
-0.0105474
-0.00880798
-0.00811634
-0.00568471
-0.00330545
-0.00321101
-0.00263029
-0.00139138
-0.00289448
-0.0030776
-0.000707097
-0.000456517
-0.000938501
-0.000490462
-0.00114496
-0.00140994
7.15585e-05
6.57251e-05
-0.000422071
-0.000583462
-0.00128172
-0.00101371
-0.000833789
-0.000489545
0.000440022
-0.00111221
-0.00312099
-0.00304683
-0.00416593
-0.00377638
-0.00228524
-0.00459353
-0.00646245
-0.00635792
-0.00840462
-0.0107052
-0.0106884
-0.0135619
-0.0203688
-0.0283058
-0.0369687
-0.0462813
-0.0609312
-0.0781494
-0.0942752
-0.106739
-0.11062
-0.101541
-0.0813247
-0.0624259
-0.043537
-0.0238459
-0.00998689
-0.00785453
-0.00517957
0.00914916
0.0245443
0.0274939
0.0173787
0.00365664
-0.0120482
-0.023994
-0.0229347
-0.00539823
0.0130279
0.0166519
0.0051745
-0.00824792
-0.0152937
-0.015294
-0.00824886
0.00517288
0.0166496
0.0130252
-0.00540085
-0.0229365
-0.0239946
-0.0120477
0.00365764
0.0173797
0.0274948
0.0245452
0.0091501
-0.00517897
-0.00785439
-0.00998712
-0.0238462
-0.043537
-0.0624254
-0.081324
-0.10154
-0.110621
-0.10674
-0.0942757
-0.0781491
-0.0609304
-0.0462808
-0.0369691
-0.0283062
-0.0203686
-0.0135612
-0.0106879
-0.0107053
-0.00840477
-0.00635794
-0.00646248
-0.00459331
-0.00228477
-0.00377625
-0.00416619
-0.0030471
-0.00312116
-0.00111208
0.000440371
-0.000489368
-0.000833844
-0.00101379
-0.00128187
-0.00058359
0.000300394
-0.000452871
-0.000254604
7.01012e-07
-0.00202384
-0.00203868
-0.00330766
-0.00516793
-0.00312029
-0.00365475
-0.00563955
-0.00595021
-0.00900303
-0.0115108
-0.010798
-0.0121161
-0.0150281
-0.016534
-0.0216621
-0.029592
-0.0369687
-0.0447766
-0.0556775
-0.0738591
-0.0928322
-0.107639
-0.116102
-0.118147
-0.109242
-0.0891342
-0.0707051
-0.0539426
-0.0363347
-0.0213244
-0.0195223
-0.020564
-0.0107131
0.00349227
0.00396807
-0.0129978
-0.0339098
-0.0499856
-0.0550968
-0.04529
-0.0207569
0.00314362
0.0128166
0.00853584
0.00241034
0.000100919
0.000100531
0.0024092
0.00853402
0.0128143
0.00314098
-0.0207596
-0.0452921
-0.0550979
-0.0499855
-0.0339088
-0.0129968
0.00396888
0.00349282
-0.0107125
-0.0205633
-0.0195217
-0.0213243
-0.0363353
-0.0539433
-0.0707051
-0.0891336
-0.109242
-0.118146
-0.116102
-0.107639
-0.0928326
-0.0738586
-0.0556765
-0.0447762
-0.0369691
-0.0295925
-0.0216619
-0.0165333
-0.0150277
-0.0121159
-0.0107981
-0.0115112
-0.00900324
-0.00595001
-0.00563922
-0.00365437
-0.00312015
-0.00516823
-0.00330784
-0.00203868
-0.0020238
8.92702e-07
-0.000254466
-0.000452842
0.000300412
0.00104926
-0.000335733
-0.0011823
-0.00122952
-0.00483789
-0.00447596
-0.00410167
-0.0058644
-0.00414429
-0.00627326
-0.0109445
-0.0116444
-0.013499
-0.016315
-0.0163595
-0.0186721
-0.0238624
-0.0275615
-0.0329707
-0.0393819
-0.0462813
-0.0556775
-0.070004
-0.090345
-0.108703
-0.121537
-0.127142
-0.128951
-0.121257
-0.10145
-0.0812603
-0.063876
-0.0473047
-0.0322269
-0.0313885
-0.035419
-0.028912
-0.0147591
-0.0159768
-0.039268
-0.0673395
-0.0829744
-0.0801078
-0.0611421
-0.0311152
-0.00365086
0.0112355
0.0147563
0.0167365
0.019566
0.0195656
0.0167352
0.0147544
0.0112333
-0.00365319
-0.0311175
-0.0611442
-0.0801093
-0.0829749
-0.0673388
-0.0392668
-0.0159758
-0.0147587
-0.0289118
-0.0354186
-0.0313876
-0.0322262
-0.047305
-0.0638769
-0.0812611
-0.101451
-0.121256
-0.12895
-0.127141
-0.121537
-0.108704
-0.0903453
-0.0700032
-0.0556765
-0.0462808
-0.0393822
-0.0329712
-0.0275616
-0.0238621
-0.0186716
-0.0163592
-0.0163151
-0.0134992
-0.0116446
-0.0109447
-0.00627285
-0.00414373
-0.00586428
-0.00410163
-0.00447611
-0.00483814
-0.00122942
-0.00118221
-0.000335618
0.00104943
0.000613048
-0.00256426
-0.00402066
-0.00279474
-0.00606889
-0.00536859
-0.00529603
-0.0098042
-0.0107071
-0.0133042
-0.0175374
-0.0169678
-0.0177458
-0.0221967
-0.0246558
-0.028593
-0.0354696
-0.0402188
-0.0449683
-0.051196
-0.0609312
-0.0738591
-0.090345
-0.109334
-0.124873
-0.135741
-0.139362
-0.140742
-0.132789
-0.11143
-0.0869096
-0.0677056
-0.0535513
-0.0413725
-0.0422846
-0.0478517
-0.0435718
-0.030039
-0.033932
-0.0634149
-0.0976281
-0.111235
-0.0993085
-0.0713481
-0.0377079
-0.00877019
0.0102401
0.0216366
0.0318824
0.0398008
0.0398004
0.0318811
0.0216348
0.0102381
-0.00877212
-0.0377098
-0.07135
-0.0993103
-0.111236
-0.0976281
-0.0634138
-0.0339307
-0.0300383
-0.0435719
-0.0478516
-0.0422838
-0.0413712
-0.0535507
-0.0677059
-0.0869104
-0.111431
-0.132789
-0.140742
-0.139361
-0.135741
-0.124874
-0.109335
-0.0903453
-0.0738586
-0.0609304
-0.0511956
-0.0449685
-0.0402192
-0.0354699
-0.0285928
-0.0246553
-0.0221962
-0.0177453
-0.0169677
-0.0175378
-0.0133043
-0.010707
-0.00980405
-0.00529558
-0.00536841
-0.00606902
-0.00279464
-0.00402082
-0.00256437
0.000613193
0.000438214
-0.00361998
-0.00558075
-0.00408193
-0.00816106
-0.00907534
-0.0103472
-0.0166779
-0.0187865
-0.0203851
-0.0244112
-0.0252091
-0.0272712
-0.0338655
-0.0378293
-0.0412574
-0.0473109
-0.051985
-0.0567842
-0.0647826
-0.0781494
-0.0928322
-0.108703
-0.124873
-0.138938
-0.150315
-0.153891
-0.154512
-0.144416
-0.119932
-0.0902292
-0.0699181
-0.0597139
-0.0514064
-0.0517561
-0.0550276
-0.0508116
-0.0383418
-0.0450181
-0.0784251
-0.115219
-0.123835
-0.10167
-0.0651488
-0.0296031
-0.000916855
0.0211131
0.0398711
0.0577357
0.0701436
0.0701433
0.0577346
0.0398695
0.0211115
-0.000918242
-0.0296043
-0.0651503
-0.101671
-0.123836
-0.11522
-0.0784246
-0.0450167
-0.0383407
-0.0508115
-0.0550279
-0.051756
-0.0514055
-0.0597128
-0.0699176
-0.0902298
-0.119933
-0.144417
-0.154513
-0.15389
-0.150314
-0.138938
-0.124874
-0.108704
-0.0928326
-0.0781491
-0.0647818
-0.0567837
-0.051985
-0.0473112
-0.0412576
-0.0378294
-0.0338653
-0.0272706
-0.0252086
-0.0244112
-0.0203852
-0.0187867
-0.0166781
-0.0103468
-0.00907504
-0.00816097
-0.00408163
-0.00558089
-0.0036201
0.000438394
0.000405961
-0.00391064
-0.00699319
-0.00703549
-0.0129102
-0.0163527
-0.0186191
-0.0245139
-0.0264588
-0.0275691
-0.0334368
-0.0381598
-0.0421593
-0.0493402
-0.0532566
-0.0551367
-0.0597783
-0.0649993
-0.0706372
-0.0798867
-0.0942752
-0.107639
-0.121537
-0.135741
-0.150315
-0.163013
-0.165808
-0.162686
-0.147217
-0.118416
-0.0845761
-0.0650779
-0.0595862
-0.0546137
-0.0519175
-0.0510251
-0.0473951
-0.038581
-0.048881
-0.0839337
-0.119969
-0.122009
-0.0903779
-0.0472393
-0.0120063
0.0145542
0.0379945
0.0625862
0.0863729
0.102038
0.102038
0.0863722
0.0625852
0.0379934
0.0145533
-0.012007
-0.0472403
-0.0903795
-0.122011
-0.11997
-0.0839342
-0.0488802
-0.0385798
-0.0473945
-0.0510252
-0.0519178
-0.0546134
-0.0595853
-0.0650768
-0.0845757
-0.118417
-0.147218
-0.162687
-0.165808
-0.163013
-0.150314
-0.135741
-0.121537
-0.107639
-0.0942757
-0.0798864
-0.0706365
-0.0649988
-0.0597781
-0.0551368
-0.053257
-0.0493407
-0.0421593
-0.0381595
-0.0334364
-0.0275686
-0.0264587
-0.0245142
-0.018619
-0.0163527
-0.0129101
-0.00703506
-0.00699317
-0.00391063
0.000406196
-0.000287539
-0.00543574
-0.0105637