/*--------------------------------*- C++ -*----------------------------------*\
  =========                 |
  \\      /  F ield         | OpenFOAM: The Open Source CFD Toolbox
   \\    /   O peration     | Website:  https://openfoam.org
    \\  /    A nd           | Version:  dev
     \\/     M anipulation  |
\*---------------------------------------------------------------------------*/
FoamFile
{
    format      ascii;
    class       surfaceScalarField;
    location    "0";
    object      phi;
}
// * * * * * * * * * * * * * * * * * * * * * * * * * * * * * * * * * * * * * //

dimensions      [0 3 -1 0 0 0 0];

internalField   nonuniform List<scalar> 
205350
(
0.00319678
2.76152e-09
7.11962e-10
0.00319677
2.70196e-09
6.63691e-10
0.00319247
4.39428e-09
3.51908e-10
0.00319247
2.44282e-09
1.02854e-10
0.00319676
2.6326e-09
6.11561e-10
0.00319246
4.34992e-09
3.14978e-10
0.00319246
2.39462e-09
7.76434e-11
0.00318506
7.24743e-09
-1.39274e-10
0.00318776
3.99512e-09
-3.57671e-10
0.00318505
2.05648e-09
2.72311e-10
0.00319674
2.56884e-09
5.6902e-10
0.00319244
4.2855e-09
2.7171e-10
0.00319244
2.33409e-09
4.45887e-11
0.00318504
7.20827e-09
-1.69749e-10
0.00318774
3.95674e-09
-3.77995e-10
0.00318504
2.01367e-09
2.58753e-10
0.00317222
1.17992e-08
-7.4223e-10
0.00317976
6.78358e-09
-1.11843e-09
0.00317976
3.40247e-09
-2.86681e-10
0.00317221
1.63391e-09
1.48607e-09
0.00319673
2.51126e-09
5.36236e-10
0.00319243
4.2134e-09
2.37649e-10
0.00319243
2.27875e-09
1.33616e-11
0.00318503
7.1435e-09
-2.05499e-10
0.00318773
3.8993e-09
-4.05194e-10
0.00318503
1.95947e-09
2.38784e-10
0.00317221
1.17566e-08
-7.69709e-10
0.00317975
6.74709e-09
-1.13609e-09
0.00317975
3.3668e-09
-2.99245e-10
0.0031722
1.5926e-09
1.47397e-09
0.0031533
1.80775e-08
-1.47367e-09
0.00316524
1.12446e-08
-2.17782e-09
0.00317093
5.98204e-09
-1.33303e-09
0.00316524
2.65652e-09
7.82535e-10
0.00315333
1.14443e-09
3.66735e-09
0.00319672
2.45643e-09
5.09855e-10
0.00319242
4.13452e-09
2.08099e-10
0.00319242
2.22431e-09
-1.59378e-11
0.00318502
7.05878e-09
-2.34466e-10
0.00318772
3.83189e-09
-4.32626e-10
0.00318502
1.90813e-09
2.15509e-10
0.0031722
1.16799e-08
-8.0216e-10
0.00317973
6.68525e-09
-1.16004e-09
0.00317973
3.31254e-09
-3.18188e-10
0.00317219
1.53994e-09
1.45514e-09
0.00315328
1.80303e-08
-1.50027e-09
0.00316523
1.1203e-08
-2.19533e-09
0.00317092
5.94647e-09
-1.34561e-09
0.00316523
2.62044e-09
7.69755e-10
0.00315332
1.10283e-09
3.65415e-09
0.00312915
2.5982e-08
-2.30963e-09
0.00314444
1.74262e-08
-3.53696e-09
0.00315445
1.02177e-08
-2.87059e-09
0.00315446
4.90864e-09
-5.82187e-10
0.00314448
1.75029e-09
2.79429e-09
0.00312914
5.617e-10
6.81461e-09
0.00319671
2.40117e-09
4.86811e-10
0.00319241
4.05031e-09
1.86442e-10
0.00319241
2.17411e-09
-4.20066e-11
0.00318501
6.95643e-09
-2.59952e-10
0.00318771
3.7568e-09
-4.58859e-10
0.003185
1.85677e-09
1.9027e-10
0.00317219
1.15723e-08
-8.28854e-10
0.00317972
6.60257e-09
-1.18527e-09
0.00317972
3.24717e-09
-3.41152e-10
0.00317218
1.48921e-09
1.4315e-09
0.00315327
1.79382e-08
-1.53195e-09
0.00316521
1.11271e-08
-2.21921e-09
0.00317091
5.88538e-09
-1.36492e-09
0.00316521
2.56539e-09
7.49673e-10
0.0031533
1.0495e-09
3.63333e-09
0.00312914
2.59309e-08
-2.33697e-09
0.00314443
1.73787e-08
-3.5561e-09
0.00315444
1.01765e-08
-2.8852e-09
0.00315445
4.87165e-09
-5.96148e-10
0.00314447
1.71189e-09
2.77982e-09
0.00312913
5.19267e-10
6.80096e-09
0.00310037
3.52237e-08
-3.18375e-09
0.00311881
2.52401e-08
-5.14622e-09
0.00313148
1.61845e-08
-4.88532e-09
0.00313503
8.81262e-09
-2.6175e-09
0.00313149
3.59234e-09
1.10542e-09
0.00311884
6.60724e-10
5.76139e-09
0.00310032
-1.10358e-10
1.09767e-08
0.0031967
2.34314e-09
4.64841e-10
0.0031924
3.95768e-09
1.63911e-10
0.0031924
2.11928e-09
-6.80011e-11
0.003185
6.83693e-09
-2.79847e-10
0.0031877
3.67424e-09
-4.83949e-10
0.00318499
1.80741e-09
1.63055e-10
0.00317217
1.14356e-08
-8.52984e-10
0.00317971
6.50152e-09
-1.21032e-09
0.00317971
3.17305e-09
-3.66722e-10
0.00317217
1.43763e-09
1.40377e-09
0.00315326
1.78026e-08
-1.55834e-09
0.0031652
1.102e-08
-2.24488e-09
0.0031709
5.80264e-09
-1.38903e-09
0.0031652
2.49852e-09
7.24221e-10
0.00315329
9.97612e-10
3.6068e-09
0.00312912
2.58229e-08
-2.36955e-09
0.00314442
1.72863e-08
-3.58205e-09
0.00315443
1.01006e-08
-2.90733e-09
0.00315444
4.80831e-09
-6.1846e-10
0.00314445
1.65366e-09
2.75675e-09
0.00312912
4.64784e-10
6.77889e-09
0.00310036
3.51688e-08
-3.21333e-09
0.0031188
2.51876e-08
-5.16798e-09
0.00313147
1.61376e-08
-4.90375e-09
0.00313502
8.77002e-09
-2.63487e-09
0.00313148
3.55189e-09
1.08944e-09
0.00311883
6.1911e-10
5.74642e-09
0.00310031
-1.53428e-10
1.09642e-08
0.00306918
4.5282e-08
-3.99941e-09
0.00308832
3.43934e-08
-6.88855e-09
0.00310413
2.38212e-08
-7.30359e-09
0.00310867
1.4465e-08
-5.29934e-09
0.00310855
7.10697e-09
-1.4186e-09
0.00310414
2.019e-09
3.76345e-09
0.00308823
-6.08881e-10
9.74359e-09
0.00306916
-8.38267e-10
1.61711e-08
0.00319669
2.28106e-09
4.4271e-10
0.00319238
3.85803e-09
1.45702e-10
0.00319238
2.06496e-09
-9.25536e-11
0.00318498
6.70114e-09
-3.00496e-10
0.00318768
3.58349e-09
-5.08777e-10
0.00318498
1.75359e-09
1.3431e-10
0.00317216
1.12709e-08
-8.72552e-10
0.0031797
6.38249e-09
-1.23563e-09
0.0031797
3.09009e-09
-3.95125e-10
0.00317215
1.38705e-09
1.37199e-09
0.00315325
1.7625e-08
-1.58264e-09
0.00316519
1.08834e-08
-2.27111e-09
0.00317088
5.70069e-09
-1.41665e-09
0.00316519
2.42208e-09
6.94028e-10
0.00315328
9.44278e-10
3.57503e-09
0.00312911
2.56566e-08
-2.39671e-09
0.00314441
1.71504e-08
-3.60992e-09
0.00315442
9.99272e-09
-2.93489e-09
0.00315442
4.72254e-09
-6.47304e-10
0.00314444
1.58313e-09
2.72718e-09
0.0031291
4.11533e-10
6.7501e-09
0.00310035
3.50436e-08
-3.2481e-09
0.00311879
2.50783e-08
-5.19688e-09
0.00313146
1.60454e-08
-4.93075e-09
0.003135
8.69177e-09
-2.66213e-09
0.00313147
3.48377e-09
1.06322e-09
0.00311882
5.56862e-10
5.7217e-09
0.0031003
-2.08589e-10
1.09425e-08
0.00306917
4.52224e-08
-4.03263e-09
0.0030883
3.43362e-08
-6.91308e-09
0.00310411
2.37697e-08
-7.32663e-09
0.00310865
1.44175e-08
-5.32253e-09
0.00310854
7.0607e-09
-1.43884e-09
0.00310413
1.97355e-09
3.74727e-09
0.00308822
-6.53613e-10
9.73006e-09
0.00306915
-8.81344e-10
1.61616e-08
0.00303328
5.54121e-08
-4.63729e-09
0.00305822
4.4376e-08
-8.60627e-09
0.00307153
3.28537e-08
-9.9636e-09
0.00307831
2.18304e-08
-8.54024e-09
0.00307846
1.24133e-08
-4.74378e-09
0.00307831
5.09754e-09
7.85526e-10
0.00307147
1.72171e-10
7.47017e-09
0.00305821
-2.00311e-09
1.47645e-08
0.00303326
-1.60037e-09
2.23372e-08
0.00319667
2.21412e-09
4.19583e-10
0.00319237
3.74871e-09
1.23282e-10
0.00319237
2.0026e-09
-1.18438e-10
0.00318497
6.54942e-09
-3.18438e-10
0.00318767
3.48425e-09
-5.33733e-10
0.00318497
1.69871e-09
1.03955e-10
0.00317215
1.10798e-08
-8.93326e-10
0.00317969
6.24693e-09
-1.26135e-09
0.00317969
2.99835e-09
-4.25504e-10
0.00317214
1.33155e-09
1.33676e-09
0.00315324
1.7407e-08
-1.60277e-09
0.00316518
1.07186e-08
-2.29841e-09
0.00317087
5.57991e-09
-1.44812e-09
0.00316518
2.33592e-09
6.59188e-10
0.00315327
8.91402e-10
3.538e-09
0.0031291
2.54333e-08
-2.42166e-09
0.00314439
1.69726e-08
-3.63854e-09
0.0031544
9.85473e-09
-2.96669e-09
0.00315441
4.61673e-09
-6.82015e-10
0.00314443
1.50248e-09
2.69152e-09
0.00312909
3.5652e-10
6.7149e-09
0.00310034
3.48436e-08
-3.27664e-09
0.00311877
2.49114e-08
-5.22728e-09
0.00313144
1.5909e-08
-4.96338e-09
0.00313499
8.58058e-09
-2.69705e-09
0.00313146
3.39251e-09
1.0287e-09
0.00311881
4.82185e-10
5.68909e-09
0.00310029
-2.62442e-10
1.09126e-08
0.00306915
4.5078e-08
-4.07078e-09
0.00308829
3.42092e-08
-6.94472e-09
0.0031041
2.36614e-08
-7.35901e-09
0.00310864
1.43239e-08
-5.35746e-09
0.00310852
6.97716e-09
-1.47166e-09
0.00310412
1.89903e-09
3.71913e-09
0.00308821
-7.19411e-10
9.70578e-09
0.00306914
-9.36256e-10
1.61423e-08
0.00303327
5.53468e-08
-4.67516e-09
0.00305821
4.43138e-08
-8.63315e-09
0.00307152
3.27984e-08
-9.99063e-09
0.0030783
2.17801e-08
-8.57056e-09
0.00307844
1.2363e-08
-4.7717e-09
0.0030783
5.04516e-09
7.64969e-10
0.00307146
1.21103e-10
7.4564e-09
0.0030582
-2.05003e-09
1.47547e-08
0.00303325
-1.64244e-09
2.23327e-08
0.00299536
6.47358e-08
-4.98517e-09
0.00301996
5.44227e-08
-1.0063e-08
0.00304222
4.28074e-08
-1.26728e-08
0.00304238
3.06592e-08
-1.21504e-08
0.00304484
1.94977e-08
-8.7803e-09
0.0030448
1.00486e-08
-3.13067e-09
0.00304246
2.72733e-09
4.09363e-09
0.00304225
-1.90014e-09
1.22713e-08
0.00301995
-3.50715e-09
2.07532e-08
0.00299534
-2.27144e-09
2.92108e-08
0.00319666
2.14218e-09
3.95248e-10
0.00319236
3.63237e-09
1.04132e-10
0.00319236
1.93971e-09
-1.43149e-10
0.00318496
6.3832e-09
-3.39629e-10
0.00318766
3.37641e-09
-5.59093e-10
0.00318496
1.63683e-09
7.29299e-11
0.00317214
1.08639e-08
-9.11974e-10
0.00317967
6.09506e-09
-1.28813e-09
0.00317967
2.89734e-09
-4.5811e-10
0.00317213
1.27441e-09
1.29852e-09
0.00315322
1.71511e-08
-1.62438e-09
0.00316517
1.05273e-08
-2.32683e-09
0.00317086
5.44204e-09
-1.48242e-09
0.00316517
2.24028e-09
6.20296e-10
0.00315326
8.33129e-10
3.49613e-09
0.00312909
2.51554e-08
-2.44226e-09
0.00314438
1.67547e-08
-3.66851e-09
0.00315439
9.68786e-09
-3.00324e-09
0.0031544
4.49125e-09
-7.22611e-10
0.00314442
1.41149e-09
2.64985e-09
0.00312908
3.01662e-10
6.67312e-09
0.00310032
3.457e-08
-3.30214e-09
0.00311876
2.46882e-08
-5.25791e-09
0.00313143
1.57304e-08
-5.00045e-09
0.00313498
8.43841e-09
-2.73898e-09
0.00313144
3.28055e-09
9.8642e-10
0.00311879
3.97216e-10
5.64887e-09
0.00310028
-3.1814e-10
1.08744e-08
0.00306914
4.48411e-08
-4.10117e-09
0.00308828
3.40088e-08
-6.97677e-09
0.00310409
2.34952e-08
-7.39651e-09
0.00310863
1.41853e-08
-5.40064e-09
0.00310851
6.85969e-09
-1.51467e-09
0.00310411
1.80105e-09
3.6805e-09
0.0030882
-7.97327e-10
9.67164e-09
0.00306913
-9.89586e-10
1.61125e-08
0.00303325
5.51815e-08
-4.71739e-09
0.0030582
4.41679e-08
-8.66667e-09
0.00307151
3.26738e-08
-1.0027e-08
0.00307829
2.16725e-08
-8.61408e-09
0.00307843
1.22649e-08
-4.81502e-09
0.00307829
4.95356e-09
7.2928e-10
0.00307145
3.99082e-11
7.42918e-09
0.00305819
-2.11803e-09
1.47334e-08
0.00303324
-1.69583e-09
2.23179e-08
0.00299534
6.46646e-08
-5.0288e-09
0.00301995
5.43551e-08
-1.00909e-08
0.00304221
4.27482e-08
-1.27021e-08
0.00304236
3.06073e-08
-1.21872e-08
0.00304483
1.94464e-08
-8.81834e-09
0.00304479
9.99206e-09
-3.1601e-09
0.00304245
2.66695e-09
4.07645e-09
0.00304224
-1.95647e-09
1.22629e-08
0.00301994
-3.55418e-09
2.07492e-08
0.00299533
-2.31164e-09
2.92128e-08
0.00295766
7.22661e-08
-4.9032e-09
0.00297919
6.36401e-08
-1.10373e-08
0.00300127
5.29137e-08
-1.50801e-08
0.00301272
4.05149e-08
-1.59327e-08
0.0030053
2.81286e-08
-1.33389e-08
0.00300834
1.68823e-08
-7.90148e-09
0.00300527
7.24483e-09
-3.27721e-10
0.00301265
-4.13319e-12
8.57818e-09
0.00300126
-4.23815e-09
1.81058e-08
0.00297921
-4.92722e-09
2.74637e-08
0.00295764
-2.73293e-09
3.63245e-08
0.00319665
2.06513e-09
3.6949e-10
0.00319235
3.50692e-09
7.94935e-11
0.00319235
1.8676e-09
-1.69032e-10
0.00318495
6.20329e-09
-3.58889e-10
0.00318765
3.26037e-09
-5.84618e-10
0.00318495
1.57316e-09
4.15591e-11
0.00317213
1.06254e-08
-9.33889e-10
0.00317966
5.92885e-09
-1.31547e-09
0.00317966
2.78777e-09
-4.91516e-10
0.00317212
1.21026e-09
1.25844e-09
0.00315321
1.68598e-08
-1.64401e-09
0.00316515
1.03112e-08
-2.35695e-09
0.00317085
5.28741e-09
-1.51978e-09
0.00316515
2.13482e-09
5.77915e-10
0.00315325
7.72892e-10
3.44994e-09
0.00312907
2.48262e-08
-2.4642e-09
0.00314437
1.6499e-08
-3.69993e-09
0.00315438
9.49421e-09
-3.0435e-09
0.00315439
4.34798e-09
-7.68311e-10
0.00314441
1.31042e-09
2.60258e-09
0.00312907
2.41054e-10
6.62502e-09
0.00310031
3.42258e-08
-3.32255e-09
0.00311875
2.44112e-08
-5.28947e-09
0.00313142
1.55112e-08
-5.04263e-09
0.00313497
8.26652e-09
-2.7881e-09
0.00313143
3.14815e-09
9.36419e-10
0.00311878
3.01581e-10
5.60107e-09
0.00310026
-3.73792e-10
1.08278e-08
0.00306913
4.45128e-08
-4.12705e-09
0.00308827
3.37362e-08
-7.00779e-09
0.00310408
2.32727e-08
-7.43777e-09
0.00310862
1.40034e-08
-5.4514e-09
0.0031085
6.71032e-09
-1.56731e-09
0.00310409
1.68208e-09
3.6319e-09
0.00308818
-8.8531e-10
9.62776e-09
0.00306912
-1.04468e-09
1.6072e-08
0.00303324
5.49056e-08
-4.7498e-09
0.00305819
4.39317e-08
-8.69898e-09
0.0030715
3.2476e-08
-1.00672e-08
0.00307828
2.15062e-08
-8.6655e-09
0.00307842
1.21203e-08
-4.86987e-09
0.00307828
4.8273e-09
6.80153e-10
0.00307144
-6.45264e-11
7.38864e-09
0.00305818
-2.19754e-09
1.46998e-08
0.00303323
-1.74734e-09
2.22903e-08
0.00299533
6.44787e-08
-5.0763e-09
0.00301994
5.41895e-08
-1.01245e-08
0.0030422
4.26066e-08
-1.274e-08
0.00304235
3.04865e-08
-1.22376e-08
0.00304481
1.93364e-08
-8.87427e-09
0.00304478
9.88526e-09
-3.20863e-09
0.00304243
2.56544e-09
4.04187e-09
0.00304223
-2.04361e-09
1.224e-08
0.00301993
-3.62175e-09
2.07336e-08
0.00299532
-2.36261e-09
2.92049e-08
0.00295764
7.21893e-08
-4.95369e-09
0.00297917
6.35674e-08
-1.10653e-08
0.00300126
5.28504e-08
-1.51086e-08
0.00301271
4.04618e-08
-1.59738e-08
0.00300529
2.80788e-08
-1.33871e-08
0.00300833
1.68261e-08
-7.94382e-09
0.00300525
7.17858e-09
-3.53693e-10
0.00301264
-7.3638e-11
8.56843e-09
0.00300124
-4.29746e-09
1.8105e-08
0.0029792
-4.97205e-09
2.7467e-08
0.00295763
-2.77049e-09
3.63335e-08
0.00291719
7.70361e-08
-4.35586e-09
0.00294301
7.10654e-08
-1.12824e-08
0.0029574
6.22706e-08
-1.68629e-08
0.0029679
5.06288e-08
-1.94378e-08
0.00297474
3.78935e-08
-1.82527e-08
0.00296559
2.53806e-08
-1.33724e-08
0.00296559
1.37669e-08
-5.72939e-09
0.00297466
3.92683e-09
3.76248e-09
0.00296786
-3.26561e-09
1.41953e-08
0.00295743
-6.6153e-09
2.47395e-08
0.00294295
-6.04819e-09
3.44538e-08
0.00291717
-3.01426e-09
4.31791e-08
0.00319664
1.98335e-09
3.42511e-10
0.00319234
3.37594e-09
5.84293e-11
0.00319234
1.79545e-09
-1.92808e-10
0.00318494
6.01177e-09
-3.82173e-10
0.00318764
3.13676e-09
-6.09906e-10
0.00318493
1.50185e-09
1.12939e-11
0.00317212
1.03664e-08
-9.54162e-10
0.00317965
5.74886e-09
-1.34353e-09
0.00317965
2.66967e-09
-5.25635e-10
0.00317211
1.14409e-09
1.21744e-09
0.0031532
1.65361e-08
-1.66695e-09
0.00316514
1.00727e-08
-2.38805e-09
0.00317084
5.11832e-09
-1.55846e-09
0.00316514
2.02052e-09
5.33317e-10
0.00315323
7.05443e-10
3.40058e-09
0.00312906
2.44491e-08
-2.48393e-09
0.00314436
1.62083e-08
-3.73331e-09
0.00315437
9.27549e-09
-3.08767e-09
0.00315438
4.18738e-09
-8.18551e-10
0.0031444
1.19901e-09
2.55044e-09
0.00312906
1.78246e-10
6.571e-09
0.0031003
3.38152e-08
-3.3437e-09
0.00311874
2.40834e-08
-5.32213e-09
0.00313141
1.52544e-08
-5.08899e-09
0.00313496
8.06717e-09
-2.84362e-09
0.00313142
2.99718e-09
8.79401e-10
0.00311877
1.95416e-10
5.546e-09
0.00310025
-4.35419e-10
1.07729e-08
0.00306912
4.40967e-08
-4.14657e-09
0.00308826
3.33943e-08
-7.03856e-09
0.00310407
2.29963e-08
-7.48366e-09
0.00310861
1.37803e-08
-5.51015e-09
0.00310849
6.5302e-09
-1.62968e-09
0.00310408
1.54211e-09
3.57341e-09
0.00308817
-9.83986e-10
9.57411e-09
0.00306911
-1.09966e-09
1.60202e-08
0.00303323
5.452e-08
-4.77571e-09
0.00305817
4.36061e-08
-8.72842e-09
0.00307148
3.22064e-08
-1.01095e-08
0.00307826
2.12828e-08
-8.72396e-09
0.00307841
1.19314e-08
-4.93564e-09
0.00307827
4.66843e-09
6.18192e-10
0.00307143
-1.89739e-10
7.33521e-09
0.00305817
-2.28666e-09
1.46536e-08
0.00303322
-1.80044e-09
2.22487e-08
0.00299532
6.41648e-08
-5.11173e-09
0.00301993
5.39163e-08
-1.01549e-08
0.00304218
4.23756e-08
-1.27796e-08
0.00304234
3.02919e-08
-1.22945e-08
0.0030448
1.9166e-08
-8.94192e-09
0.00304477
9.73061e-09
-3.27304e-09
0.00304242
2.42907e-09
3.98976e-09
0.00304222
-2.15341e-09
1.22004e-08
0.00301992
-3.70019e-09
2.07031e-08
0.00299531
-2.4116e-09
2.91821e-08
0.00295763
7.19849e-08
-5.00801e-09
0.00297916
6.3383e-08
-1.1098e-08
0.00300124
5.26913e-08
-1.51436e-08
0.0030127
4.03279e-08
-1.60276e-08
0.00300528
2.79591e-08
-1.34545e-08
0.00300832
1.67083e-08
-8.00912e-09
0.00300524
7.0591e-09
-4.02187e-10
0.00301262
-1.86102e-10
8.53965e-09
0.00300123
-4.3875e-09
1.80896e-08
0.00297919
-5.03681e-09
2.74596e-08
0.00295761
-2.81844e-09
3.6334e-08
0.00291718
7.69514e-08
-4.41306e-09
0.002943
7.09881e-08
-1.13101e-08
0.00295739
6.22031e-08
-1.6888e-08
0.00296789
5.05744e-08
-1.94786e-08
0.00297472
3.78463e-08
-1.8309e-08
0.00296558
2.53286e-08
-1.34292e-08
0.00296558
1.37007e-08
-5.76994e-09
0.00297465
3.84752e-09
3.74561e-09
0.00296785
-3.34271e-09
1.4196e-08
0.00295742
-6.67443e-09
2.47476e-08
0.00294294
-6.08857e-09
3.44648e-08
0.00291716
-3.0479e-09
4.31932e-08
0.00287367
7.82237e-08
-3.34627e-09
0.00290292
7.57235e-08
-1.07034e-08
0.00292237
6.99278e-08
-1.76993e-08
0.00291976
6.00885e-08
-2.2252e-08
0.00292563
4.80066e-08
-2.30033e-08
0.00293447
3.51306e-08
-1.94363e-08
0.00291925
2.2092e-08
-1.20268e-08
0.00293447
9.99136e-09
-2.13953e-09
0.00292563
-2.9076e-10
9.10616e-09
0.00291979
-6.8243e-09
2.07023e-08
0.0029223
-8.74425e-09
3.1753e-08
0.00290294
-6.90222e-09
4.12075e-08
0.00287369
-3.06113e-09
4.92357e-08
0.00319663
1.89707e-09
3.143e-10
0.00319233
3.23754e-09
3.1514e-11
0.00319233
1.71401e-09
-2.16789e-10
0.00318493
5.80982e-09
-4.03145e-10
0.00318763
3.0065e-09
-6.34349e-10
0.00318492
1.42934e-09
-1.73189e-11
0.0031721
1.00897e-08
-9.78192e-10
0.00317964
5.55767e-09
-1.3711e-09
0.00317964
2.54449e-09
-5.58492e-10
0.0031721
1.07063e-09
1.17715e-09
0.00315319
1.61831e-08
-1.6882e-09
0.00316513
9.81392e-09
-2.42018e-09
0.00317083
4.93541e-09
-1.59834e-09
0.00316513
1.89756e-09
4.87571e-10
0.00315322
6.35937e-10
3.34914e-09
0.00312905
2.40279e-08
-2.50678e-09
0.00314435
1.58855e-08
-3.76789e-09
0.00315436
9.03439e-09
-3.13386e-09
0.00315437
4.01198e-09
-8.71743e-10
0.00314438
1.07838e-09
2.49462e-09
0.00312905
1.08003e-10
6.51207e-09
0.00310029
3.33422e-08
-3.36207e-09
0.00311873
2.37083e-08
-5.35649e-09
0.0031314
1.49624e-08
-5.13978e-09
0.00313495
7.84214e-09
-2.90496e-09
0.00313141
2.82816e-09
8.16118e-10
0.00311876
7.84497e-11
5.48434e-09
0.00310024
-4.99395e-10
1.07098e-08
0.0030691
4.35978e-08
-4.1659e-09
0.00308824
3.29869e-08
-7.06945e-09
0.00310405
2.26696e-08
-7.53341e-09
0.00310859
1.35189e-08
-5.57622e-09
0.00310848
6.32158e-09
-1.70097e-09
0.00310407
1.38288e-09
3.50582e-09
0.00308816
-1.09343e-09
9.511e-09
0.00306909
-1.16071e-09
1.59574e-08
0.00303322
5.4029e-08
-4.79367e-09
0.00305816
4.31945e-08
-8.75589e-09
0.00307147
3.18681e-08
-1.01551e-08
0.00307825
2.10049e-08
-8.79018e-09
0.0030784
1.16997e-08
-5.01267e-09
0.00307825
4.47777e-09
5.43457e-10
0.00307142
-3.36158e-10
7.2691e-09
0.00305815
-2.38626e-09
1.45947e-08
0.00303321
-1.85327e-09
2.21927e-08
0.00299531
6.37235e-08
-5.1386e-09
0.00301991
5.35363e-08
-1.01802e-08
0.00304217
4.20563e-08
-1.28191e-08
0.00304233
3.00252e-08
-1.23566e-08
0.00304479
1.89369e-08
-9.02046e-09
0.00304476
9.53007e-09
-3.35266e-09
0.00304241
2.25986e-09
3.92071e-09
0.0030422
-2.28345e-09
1.21444e-08
0.00301991
-3.78765e-09
2.0657e-08
0.0029953
-2.4622e-09
2.91426e-08
0.00295762
7.16373e-08
-5.04837e-09
0.00297915
6.30747e-08
-1.1126e-08
0.00300123
5.24264e-08
-1.51779e-08
0.00301269
4.01044e-08
-1.60853e-08
0.00300527
2.77637e-08
-1.35324e-08
0.00300831
1.65276e-08
-8.09145e-09
0.00300523
6.89064e-09
-4.72174e-10
0.00301261
-3.33246e-10
8.48864e-09
0.00300122
-4.4993e-09
1.80544e-08
0.00297918
-5.11227e-09
2.74357e-08
0.0029576
-2.86472e-09
3.63184e-08
0.00291716
7.67289e-08
-4.47459e-09
0.00294298
7.07873e-08
-1.13425e-08
0.00295738
6.20273e-08
-1.69173e-08
0.00296788
5.04271e-08
-1.95294e-08
0.00297471
3.77181e-08
-1.83843e-08
0.00296557
2.52036e-08
-1.35117e-08
0.00296557
1.35686e-08
-5.83844e-09
0.00297464
3.71143e-09
3.70351e-09
0.00296784
-3.4637e-09
1.41769e-08
0.00295741
-6.76392e-09
2.47421e-08
0.00294293
-6.1487e-09
3.44672e-08
0.00291715
-3.09158e-09
4.31997e-08
0.00287365
7.81241e-08
-3.40863e-09
0.00290291
7.56394e-08
-1.07293e-08
0.00292236
6.98558e-08
-1.77194e-08
0.00291974
6.0032e-08
-2.22884e-08
0.00292562
4.79619e-08
-2.30621e-08
0.00293446
3.50854e-08
-1.95065e-08
0.00291924
2.20315e-08
-1.20856e-08
0.00293446
9.90916e-09
-2.1709e-09
0.00292562
-3.8333e-10
9.10257e-09
0.00291978
-6.90565e-09
2.07143e-08
0.00292228
-8.79966e-09
3.17697e-08
0.00290293
-6.93525e-09
4.1224e-08
0.00287368
-3.08948e-09
4.92486e-08
0.00283235
7.51449e-08
-1.7003e-09
0.00285508
7.68021e-08
-9.28207e-09
0.0028824
7.49041e-08
-1.744e-08
0.00288453
6.79528e-08
-2.4008e-08
0.00287289
5.7513e-08
-2.70864e-08
0.00288164
4.52895e-08
-2.55401e-08
0.00288736
3.1793e-08
-1.91927e-08
0.00288736
1.80302e-08
-9.14491e-09
0.00288164
4.86256e-09
2.84408e-09
0.00287289
-5.2029e-09
1.54345e-08
0.00288453
-1.03582e-08
2.76865e-08
0.00288236
-1.06727e-08
3.86531e-08
0.00285505
-7.4178e-09
4.72271e-08
0.00283229
-2.64722e-09
5.38253e-08
0.00319662
1.80695e-09
2.85222e-10
0.00319232
3.09594e-09
9.00022e-12
0.00319232
1.63375e-09
-2.37283e-10
0.00318492
5.59994e-09
-4.28121e-10
0.00318762
2.87073e-09
-6.57204e-10
0.00318491
1.34951e-09
-4.2584e-11
0.00317209
9.79745e-09
-1e-09
0.00317963
5.35613e-09
-1.3981e-09
0.00317963
2.41262e-09
-5.89836e-10
0.00317209
9.96011e-10
1.13869e-09
0.00315318
1.58043e-08
-1.71309e-09
0.00316512
9.53765e-09
-2.45195e-09
0.00317081
4.74153e-09
-1.63712e-09
0.00316512
1.76764e-09
4.42427e-10
0.00315321
5.59205e-10
3.29727e-09
0.00312904
2.35664e-08
-2.52765e-09
0.00314434
1.55338e-08
-3.80361e-09
0.00315435
8.77301e-09
-3.18181e-09
0.00315436
3.82257e-09
-9.26758e-10
0.00314437
9.48881e-10
2.4365e-09
0.00312904
3.56511e-11
6.44927e-09
0.00310028
3.28116e-08
-3.38311e-09
0.00311871
2.32896e-08
-5.39181e-09
0.00313139
1.46386e-08
-5.19306e-09
0.00313493
7.59439e-09
-2.9703e-09
0.0031314
2.64375e-09
7.48204e-10
0.00311875
-4.81488e-11
5.41722e-09
0.00310023
-5.71007e-10
1.06394e-08
0.00306909
4.30209e-08
-4.18161e-09
0.00308823
3.25181e-08
-7.10117e-09
0.00310404
2.22957e-08
-7.58741e-09
0.00310858
1.32217e-08
-5.64908e-09
0.00310847
6.08628e-09
-1.78036e-09
0.00310406
1.20476e-09
3.4299e-09
0.00308815
-1.21402e-09
9.43902e-09
0.00306908
-1.22412e-09
1.58833e-08
0.0030332
5.34382e-08
-4.81024e-09
0.00305815
4.27017e-08
-8.78199e-09
0.00307146
3.1465e-08
-1.02034e-08
0.00307824
2.06762e-08
-8.86372e-09
0.00307839
1.14285e-08
-5.10027e-09
0.00307824
4.2574e-09
4.5697e-10
0.0030714
-5.02335e-10
7.1913e-09
0.00305814
-2.49663e-09
1.45236e-08
0.0030332
-1.91206e-09
2.2122e-08
0.00299529
6.31598e-08
-5.15593e-09
0.0030199
5.30534e-08
-1.02015e-08
0.00304216
4.16521e-08
-1.28599e-08
0.00304232
2.96892e-08
-1.24252e-08
0.00304478
1.86515e-08
-9.11061e-09
0.00304474
9.28512e-09
-3.4476e-09
0.0030424
2.0581e-09
3.83509e-09
0.00304219
-2.43461e-09
1.20724e-08
0.00301989
-3.88511e-09
2.0595e-08
0.00299529
-2.51242e-09
2.90852e-08
0.0029576
7.11471e-08
-5.07853e-09
0.00297914
6.26428e-08
-1.11469e-08
0.00300122
5.20566e-08
-1.52095e-08
0.00301268
3.97928e-08
-1.61457e-08
0.00300526
2.74941e-08
-1.36196e-08
0.00300829
1.62857e-08
-8.1899e-09
0.00300522
6.67512e-09
-5.62936e-10
0.0030126
-5.13096e-10
8.4159e-09
0.00300121
-4.63042e-09
1.79991e-08
0.00297916
-5.19654e-09
2.73936e-08
0.00295759
-2.91303e-09
3.62839e-08
0.00291715
7.63527e-08
-4.52105e-09
0.00294297
7.04485e-08
-1.13696e-08
0.00295736
6.17303e-08
-1.69437e-08
0.00296786
5.01749e-08
-1.95807e-08
0.0029747
3.74986e-08
-1.84673e-08
0.00296555
2.49994e-08
-1.36106e-08
0.00296556
1.3371e-08
-5.93107e-09
0.00297462
3.52549e-09
3.6334e-09
0.00296783
-3.61842e-09
1.41311e-08
0.0029574
-6.87472e-09
2.47148e-08
0.00294292
-6.22043e-09
3.44528e-08
0.00291714
-3.13441e-09
4.3189e-08
0.00287364
7.788e-08
-3.47648e-09
0.00290289
7.54227e-08
-1.07607e-08
0.00292234
6.96647e-08
-1.77421e-08
0.00291973
5.98716e-08
-2.23311e-08
0.0029256
4.78257e-08
-2.31371e-08
0.00293445
3.49563e-08
-1.96035e-08
0.00291923
2.18927e-08
-1.2177e-08
0.00293445
9.75539e-09
-2.23455e-09
0.00292561
-5.35229e-10
9.07202e-09
0.00291977
-7.03122e-09
2.07072e-08
0.00292227
-8.88534e-09
3.17752e-08
0.00290292
-6.98812e-09
4.12338e-08
0.00287366
-3.12743e-09
4.92509e-08
0.00283233
7.502e-08
-1.76506e-09
0.00285506
7.67045e-08
-9.30357e-09
0.00288238
7.48244e-08
-1.74517e-08
0.00288452
6.78927e-08
-2.40368e-08
0.00287288
5.74695e-08
-2.71419e-08
0.00288162
4.52516e-08
-2.56177e-08
0.00288735
3.17429e-08
-1.92708e-08
0.00288735
1.79529e-08
-9.19702e-09
0.00288162
4.76173e-09
2.82788e-09
0.00287288
-5.30596e-09
1.54452e-08
0.00288452
-1.0439e-08
2.77086e-08
0.00288235
-1.0719e-08
3.86753e-08
0.00285504
-7.44071e-09
4.72419e-08
0.00283228
-2.66962e-09
5.38241e-08
0.00279077
6.81403e-08
1.11403e-10
0.00281426
7.37582e-08
-6.70417e-09
0.0028299
7.63805e-08
-1.60126e-08
0.00284341
7.32324e-08
-2.44955e-08
0.00283711
6.54498e-08
-3.01137e-08
0.00282475
5.48099e-08
-3.10886e-08
0.00283053
4.19442e-08
-2.66859e-08
0.00285759
2.76179e-08
-1.73197e-08
0.00283053
1.21238e-08
-4.74186e-09
0.00282475
-1.45922e-09
8.89663e-09
0.00283712
-1.04752e-08
2.22954e-08
0.00284341
-1.39514e-08
3.46644e-08
0.00282991
-1.22844e-08
4.49754e-08
0.00281424
-7.1887e-09
5.19925e-08
0.00279074
-2.14557e-09
5.68047e-08
0.00319661
1.71343e-09
2.55333e-10
0.00319231
2.94925e-09
-1.93511e-11
0.00319231
1.54473e-09
-2.56828e-10
0.00318491
5.38345e-09
-4.49937e-10
0.00318761
2.7306e-09
-6.7781e-10
0.0031849
1.26972e-09
-6.40219e-11
0.00317208
9.49284e-09
-1.02532e-09
0.00317962
5.14722e-09
-1.42292e-09
0.00317962
2.27604e-09
-6.17412e-10
0.00317208
9.14673e-10
1.10386e-09
0.00315317
1.54027e-08
-1.73555e-09
0.00316511
9.24625e-09
-2.48315e-09
0.0031708
4.53752e-09
-1.6745e-09
0.00316511
1.63124e-09
3.99182e-10
0.0031532
4.81524e-10
3.24634e-09
0.00312903
2.30689e-08
-2.55191e-09
0.00314432
1.51565e-08
-3.83901e-09
0.00315434
8.49447e-09
-3.22902e-09
0.00315434
3.62223e-09
-9.8146e-10
0.00314436
8.12376e-10
2.37781e-09
0.00312903
-4.39473e-11
6.38416e-09
0.00310026
3.22278e-08
-3.40166e-09
0.0031187
2.28312e-08
-5.42803e-09
0.00313137
1.42859e-08
-5.24848e-09
0.00313492
7.3261e-09
-3.03837e-09
0.00313139
2.44488e-09
6.77106e-10
0.00311874
-1.83936e-10
5.34601e-09
0.00310022
-6.4478e-10
1.05626e-08
0.00306908
4.23713e-08
-4.19936e-09
0.00308822
3.19925e-08
-7.13313e-09
0.00310403
2.18788e-08
-7.64378e-09
0.00310857
1.28924e-08
-5.72685e-09
0.00310845
5.82738e-09
-1.86588e-09
0.00310405
1.0105e-09
3.34738e-09
0.00308814
-1.34461e-09
9.35922e-09
0.00306907
-1.29529e-09
1.57988e-08
0.00303319
5.27531e-08
-4.82224e-09
0.00305814
4.21321e-08
-8.80763e-09
0.00307145
3.10012e-08
-1.02549e-08
0.00307823
2.02999e-08
-8.94423e-09
0.00307837
1.11201e-08
-5.19761e-09
0.00307823
4.00898e-09
3.59725e-10
0.00307139
-6.88135e-10
7.10262e-09
0.00305813
-2.6183e-09
1.44405e-08
0.00303318
-1.97304e-09
2.20362e-08
0.00299528
6.24798e-08
-5.17082e-09
0.00301989
5.24727e-08
-1.02196e-08
0.00304215
4.11678e-08
-1.29014e-08
0.0030423
2.92885e-08
-1.24999e-08
0.00304477
1.83137e-08
-9.21197e-09
0.00304473
8.99853e-09
-3.5569e-09
0.00304239
1.82551e-09
3.73436e-09
0.00304218
-2.60574e-09
1.19855e-08
0.00301988
-3.99298e-09
2.05172e-08
0.00299527
-2.56846e-09
2.90092e-08
0.00295759
7.05196e-08
-5.09807e-09
0.00297912
6.20917e-08
-1.1162e-08
0.00300121
5.15855e-08
-1.52397e-08
0.00301266
3.93964e-08
-1.62102e-08
0.00300524
2.71534e-08
-1.37173e-08
0.00300828
1.59848e-08
-8.30501e-09
0.00300521
6.41345e-09
-6.74124e-10
0.00301259
-7.25931e-10
8.32215e-09
0.0030012
-4.78198e-09
1.79242e-08
0.00297915
-5.29047e-09
2.73325e-08
0.00295758
-2.96112e-09
3.62283e-08
0.00291714
7.58234e-08
-4.55649e-09
0.00294296
6.99718e-08
-1.13889e-08
0.00295735
6.13126e-08
-1.69651e-08
0.00296785
4.98186e-08
-1.96313e-08
0.00297469
3.71889e-08
-1.85568e-08
0.00296554
2.47172e-08
-1.37246e-08
0.00296554
1.31095e-08
-6.04688e-09
0.00297461
3.29158e-09
3.53595e-09
0.00296781
-3.80482e-09
1.40588e-08
0.00295738
-7.00414e-09
2.46648e-08
0.00294291
-6.30167e-09
3.44187e-08
0.00291713
-3.18006e-09
4.31568e-08
0.00287363
7.74787e-08
-3.52956e-09
0.00290288
7.50588e-08
-1.07879e-08
0.00292233
6.93396e-08
-1.77612e-08
0.00291972
5.95923e-08
-2.2371e-08
0.00292559
4.75832e-08
-2.32154e-08
0.00293444
3.47312e-08
-1.97144e-08
0.00291922
2.167e-08
-1.22931e-08
0.00293444
9.53326e-09
-2.33092e-09
0.0029256
-7.36503e-10
9.00693e-09
0.00291976
-7.18961e-09
2.06704e-08
0.00292226
-8.99308e-09
3.17589e-08
0.00290291
-7.05462e-09
4.12268e-08
0.00287365
-3.16562e-09
4.92315e-08
0.00283232
7.47484e-08
-1.83783e-09
0.00285505
7.64687e-08
-9.33238e-09
0.00288237
7.46174e-08
-1.74651e-08
0.0028845
6.77196e-08
-2.40686e-08
0.00287286
5.73253e-08
-2.72089e-08
0.00288161
4.512e-08
-2.57198e-08
0.00288734
3.16027e-08
-1.93845e-08
0.00288734
1.77892e-08
-9.28812e-09
0.00288161
4.58454e-09
2.77601e-09
0.00287287
-5.4699e-09
1.54287e-08
0.00288451
-1.05642e-08
2.77139e-08
0.00288234
-1.07952e-08
3.86888e-08
0.00285503
-7.48349e-09
4.72478e-08
0.00283227
-2.70115e-09
5.38e-08
0.00279075
6.7979e-08
5.09883e-11
0.00281425
7.36376e-08
-6.71911e-09
0.00282989
7.62855e-08
-1.60113e-08
0.0028434
7.31639e-08
-2.45108e-08
0.0028371
6.54046e-08
-3.01606e-08
0.00282474
5.47774e-08
-3.11661e-08
0.00283052
4.19065e-08
-2.6778e-08
0.00285758
2.75528e-08
-1.73965e-08
0.00283052
1.20243e-08
-4.77922e-09
0.00282474
-1.57726e-09
8.89764e-09
0.00283711
-1.05829e-08
2.23186e-08
0.0028434
-1.40227e-08
3.46922e-08
0.0028299
-1.23157e-08
4.49946e-08
0.00281423
-7.20031e-09
5.19913e-08
0.00279073
-2.16081e-09
5.67676e-08
0.00274418
5.92953e-08
1.18456e-09
0.00277645
6.69907e-08
-3.70679e-09
0.00278932
7.38901e-08
-1.29897e-08
0.0027853
7.50895e-08
-2.35231e-08
0.00279441
7.07755e-08
-3.17821e-08
0.0027888
6.26426e-08
-3.56795e-08
0.00276925
5.13497e-08
-3.38051e-08
0.00279926
3.77322e-08
-2.61802e-08
0.00279928
2.11149e-08
-1.38105e-08
0.00276914
4.48594e-09
7.85761e-10
0.00278884
-8.64641e-09
1.54786e-08
0.00279449
-1.62565e-08
2.916e-08
0.00278531
-1.73687e-08
4.11617e-08
0.00278937
-1.29795e-08
5.0304e-08
0.00277643
-6.78211e-09
5.53813e-08
0.00274415
-2.14084e-09
5.88918e-08
0.0031966
1.61736e-09
2.25044e-10
0.0031923
2.80203e-09
-4.23395e-11
0.0031923
1.45851e-09
-2.71607e-10
0.0031849
5.16305e-09
-4.75434e-10
0.0031876
2.58754e-09
-6.95362e-10
0.00318489
1.18343e-09
-8.00009e-11
0.00317207
9.17813e-09
-1.04741e-09
0.00317961
4.93189e-09
-1.44552e-09
0.00317961
2.13524e-09
-6.41099e-10
0.00317207
8.33585e-10
1.07367e-09
0.00315316
1.49822e-08
-1.76125e-09