/*--------------------------------*- C++ -*----------------------------------*\
  =========                 |
  \\      /  F ield         | OpenFOAM: The Open Source CFD Toolbox
   \\    /   O peration     | Website:  https://openfoam.org
    \\  /    A nd           | Version:  dev
     \\/     M anipulation  |
\*---------------------------------------------------------------------------*/
FoamFile
{
    format      ascii;
    class       volVectorField;
    location    "0";
    object      U;
}
// * * * * * * * * * * * * * * * * * * * * * * * * * * * * * * * * * * * * * //

dimensions      [0 1 -1 0 0 0 0];

internalField   nonuniform List<vector> 
70000
(
(2 1.72682e-06 4.452e-07)
(1.99999 1.68957e-06 4.15015e-07)
(2 4.48036e-06 2.16954e-07)
(2 1.52696e-06 5.09088e-07)
(1.99998 1.6462e-06 3.82418e-07)
(1.99999 4.41531e-06 1.93918e-07)
(1.99999 1.49686e-06 4.631e-07)
(2 7.30595e-06 -9.65603e-08)
(2 4.03106e-06 -1.27748e-08)
(2 1.28578e-06 2.3387e-07)
(1.99997 1.60633e-06 3.55816e-07)
(1.99998 4.33156e-06 1.66931e-07)
(1.99998 1.45906e-06 4.0979e-07)
(1.99999 7.25355e-06 -1.15541e-07)
(1.99999 3.97694e-06 -4.84878e-08)
(1.99999 1.25905e-06 2.09572e-07)
(2 1.19993e-05 -4.90057e-07)
(2 6.7678e-06 -8.15634e-07)
(2 3.42082e-06 -4.1768e-07)
(2 1.02004e-06 1.10593e-06)
(1.99997 1.57032e-06 3.35316e-07)
(1.99997 4.24651e-06 1.45698e-07)
(1.99997 1.42449e-06 3.63626e-07)
(1.99998 7.1725e-06 -1.37781e-07)
(1.99998 3.90318e-06 -9.24299e-08)
(1.99998 1.2252e-06 1.76338e-07)
(1.99999 1.19478e-05 -5.07126e-07)
(1.99999 6.72095e-06 -8.4557e-07)
(1.99999 3.37176e-06 -4.38108e-07)
(1.99999 9.94244e-07 1.08981e-06)
(2 1.89311e-05 -9.79908e-07)
(2 1.13691e-05 -1.90735e-06)
(2 5.9034e-06 -1.58026e-06)
(2 2.6876e-06 2.96999e-07)
(2 7.06789e-07 3.26305e-06)
(1.99996 1.53604e-06 3.1882e-07)
(1.99997 4.16108e-06 1.27282e-07)
(1.99997 1.39048e-06 3.24777e-07)
(1.99997 7.07411e-06 -1.55759e-07)
(1.99997 3.82642e-06 -1.30753e-07)
(1.99997 1.19315e-06 1.42174e-07)
(1.99998 1.18587e-05 -5.27221e-07)
(1.99998 6.64625e-06 -8.82639e-07)
(1.99998 3.30396e-06 -4.66782e-07)
(1.99998 9.61359e-07 1.06543e-06)
(1.99999 1.88742e-05 -9.96366e-07)
(1.99999 1.13201e-05 -1.9352e-06)
(1.99999 5.85881e-06 -1.59891e-06)
(1.99999 2.63921e-06 2.81343e-07)
(1.99999 6.80817e-07 3.24709e-06)
(2 2.81307e-05 -1.5534e-06)
(2 1.81942e-05 -3.31791e-06)
(2 1.02457e-05 -3.29078e-06)
(2 4.77083e-06 -1.25499e-06)
(2 1.79503e-06 2.25197e-06)
(2 3.26824e-07 6.68942e-06)
(1.99995 1.50149e-06 3.0441e-07)
(1.99996 4.07404e-06 1.13801e-07)
(1.99996 1.35912e-06 2.91959e-07)
(1.99997 6.9604e-06 -1.71542e-07)
(1.99997 3.7454e-06 -1.65493e-07)
(1.99997 1.16108e-06 1.07987e-07)
(1.99997 1.17376e-05 -5.43646e-07)
(1.99997 6.55219e-06 -9.16181e-07)
(1.99997 3.23101e-06 -4.98117e-07)
(1.99997 9.29699e-07 1.03593e-06)
(1.99998 1.87673e-05 -1.01585e-06)
(1.99998 1.12335e-05 -1.9699e-06)
(1.99998 5.7866e-06 -1.62554e-06)
(1.99998 2.57187e-06 2.57175e-07)
(1.99998 6.47533e-07 3.22206e-06)
(1.99999 2.80679e-05 -1.57026e-06)
(1.99999 1.8138e-05 -3.34605e-06)
(1.99999 1.01975e-05 -3.3104e-06)
(1.99999 4.7251e-06 -1.27123e-06)
(1.99999 1.74502e-06 2.23515e-06)
(1.99999 3.0034e-07 6.67239e-06)
(2 3.94354e-05 -2.16784e-06)
(2 2.72958e-05 -5.00669e-06)
(2 1.68192e-05 -5.57375e-06)
(2 8.72486e-06 -3.60771e-06)
(2 3.35982e-06 2.86562e-07)
(2 7.03111e-07 5.45478e-06)
(2 -1.18476e-07 1.14598e-05)
(1.99994 1.46519e-06 2.90672e-07)
(1.99995 3.98145e-06 9.97743e-08)
(1.99995 1.32485e-06 2.61279e-07)
(1.99996 6.83257e-06 -1.83813e-07)
(1.99996 3.66233e-06 -1.94577e-07)
(1.99996 1.13026e-06 7.45859e-08)
(1.99997 1.15871e-05 -5.58404e-07)
(1.99997 6.44177e-06 -9.47368e-07)
(1.99997 3.15256e-06 -5.30319e-07)
(1.99997 8.97513e-07 1.00261e-06)
(1.99997 1.86133e-05 -1.03187e-06)
(1.99997 1.11142e-05 -2.0019e-06)
(1.99997 5.69383e-06 -1.65585e-06)
(1.99997 2.49838e-06 2.27108e-07)
(1.99997 6.15169e-07 3.19036e-06)
(1.99998 2.79403e-05 -1.59014e-06)
(1.99998 1.80317e-05 -3.38115e-06)
(1.99998 1.01115e-05 -3.33831e-06)
(1.99998 4.65098e-06 -1.29668e-06)
(1.99998 1.67532e-06 2.20842e-06)
(1.99998 2.66357e-07 6.64515e-06)
(1.99999 3.93672e-05 -2.18604e-06)
(1.99999 2.72323e-05 -5.03672e-06)
(1.99999 1.67637e-05 -5.59647e-06)
(1.99999 8.67495e-06 -3.62705e-06)
(1.99999 3.3105e-06 2.68294e-07)
(1.99999 6.50588e-07 5.43661e-06)
(1.99999 -1.45355e-07 1.14431e-05)
(2 5.24141e-05 -2.77038e-06)
(2 3.85186e-05 -6.85805e-06)
(2 2.57148e-05 -8.36358e-06)
(2 1.49436e-05 -6.78754e-06)
(2 6.8342e-06 -2.7128e-06)
(2 1.62804e-06 3.08352e-06)
(2 -5.88015e-07 9.99778e-06)
(2 -6.13243e-07 1.7672e-05)
(1.99994 1.42638e-06 2.76833e-07)
(1.99994 3.88272e-06 8.8454e-08)
(1.99994 1.29091e-06 2.32174e-07)
(1.99995 6.68925e-06 -1.96536e-07)
(1.99995 3.57124e-06 -2.24027e-07)
(1.99995 1.09666e-06 4.02747e-08)
(1.99996 1.1408e-05 -5.70247e-07)
(1.99996 6.31536e-06 -9.75145e-07)
(1.99996 3.06983e-06 -5.63575e-07)
(1.99996 8.65962e-07 9.65509e-07)
(1.99997 1.84142e-05 -1.04645e-06)
(1.99997 1.09646e-05 -2.03242e-06)
(1.99997 5.58352e-06 -1.68813e-06)
(1.99997 2.41839e-06 1.92441e-07)
(1.99997 5.81922e-07 3.15275e-06)
(1.99997 2.77477e-05 -1.60637e-06)
(1.99997 1.7878e-05 -3.41368e-06)
(1.99997 9.99169e-06 -3.37037e-06)
(1.99997 4.55543e-06 -1.32907e-06)
(1.99997 1.59887e-06 2.17419e-06)
(1.99997 2.33176e-07 6.60999e-06)
(1.99998 3.92171e-05 -2.20712e-06)
(1.99998 2.7104e-05 -5.07375e-06)
(1.99998 1.66575e-05 -5.62804e-06)
(1.99998 8.58606e-06 -3.65674e-06)
(1.99998 3.23147e-06 2.38656e-07)
(1.99998 5.77695e-07 5.40696e-06)
(1.99998 -1.79749e-07 1.14151e-05)
(1.99999 5.23397e-05 -2.79078e-06)
(1.99999 3.84485e-05 -6.89104e-06)
(1.99999 2.56525e-05 -8.39052e-06)
(1.99999 1.4887e-05 -6.81252e-06)
(1.99999 6.77988e-06 -2.73546e-06)
(1.99999 1.57359e-06 3.064e-06)
(1.99999 -6.42909e-07 9.98026e-06)
(1.99999 -6.40121e-07 1.7658e-05)
(2 6.63168e-05 -3.26317e-06)
(2 5.14343e-05 -8.7188e-06)
(2 3.68118e-05 -1.14877e-05)
(2 2.35589e-05 -1.07132e-05)
(2 1.26475e-05 -6.78272e-06)
(2 4.52695e-06 -5.2944e-07)
(2 -4.41671e-07 7.25675e-06)
(2 -2.03223e-06 1.59909e-05)
(2 -1.13701e-06 2.53602e-05)
(1.99993 1.38452e-06 2.62372e-07)
(1.99994 3.77541e-06 7.45057e-08)
(1.99994 1.25194e-06 2.02137e-07)
(1.99994 6.53151e-06 -2.07548e-07)
(1.99994 3.47515e-06 -2.50843e-07)
(1.99994 1.06238e-06 5.85891e-09)
(1.99995 1.12021e-05 -5.82786e-07)
(1.99995 6.17343e-06 -1.00359e-06)
(1.99995 2.97882e-06 -5.97875e-07)
(1.99995 8.31336e-07 9.25267e-07)
(1.99996 1.81717e-05 -1.05828e-06)
(1.99996 1.0786e-05 -2.06056e-06)
(1.99996 5.45586e-06 -1.72287e-06)
(1.99996 2.33296e-06 1.53078e-07)
(1.99996 5.48979e-07 3.10925e-06)
(1.99996 2.74918e-05 -1.62098e-06)
(1.99997 1.76791e-05 -3.44494e-06)
(1.99997 9.8408e-06 -3.40508e-06)
(1.99997 4.44132e-06 -1.36718e-06)
(1.99997 1.51524e-06 2.13315e-06)
(1.99997 1.98922e-07 6.56739e-06)
(1.99997 3.89813e-05 -2.22391e-06)
(1.99997 2.6911e-05 -5.10752e-06)
(1.99997 1.65032e-05 -5.66358e-06)
(1.99997 8.46234e-06 -3.69411e-06)
(1.99997 3.13028e-06 1.99912e-07)
(1.99997 4.97887e-07 5.36816e-06)
(1.99997 -2.1328e-07 1.13775e-05)
(1.99998 5.21645e-05 -2.81374e-06)
(1.99998 3.82969e-05 -6.93064e-06)
(1.99998 2.5525e-05 -8.42651e-06)
(1.99998 1.47786e-05 -6.84913e-06)
(1.99998 6.6848e-06 -2.77149e-06)
(1.99998 1.48812e-06 3.03087e-06)
(1.99998 -7.18444e-07 9.94984e-06)
(1.99998 -6.74339e-07 1.76316e-05)
(1.99999 6.62348e-05 -3.28642e-06)
(1.99999 5.13573e-05 -8.75529e-06)
(1.99999 3.67437e-05 -1.15186e-05)
(1.99999 2.34971e-05 -1.07452e-05)
(1.99999 1.2587e-05 -6.81337e-06)
(1.99999 4.46571e-06 -5.53801e-07)
(1.99999 -5.01665e-07 7.23885e-06)
(1.99999 -2.08848e-06 1.59768e-05)
(1.99999 -1.16329e-06 2.53513e-05)
(2 8.01027e-05 -3.57426e-06)
(2 6.52834e-05 -1.03265e-05)
(2 4.97188e-05 -1.47194e-05)
(2 3.44909e-05 -1.51744e-05)
(2 2.09738e-05 -1.18465e-05)
(2 9.87767e-06 -5.43928e-06)
(2 1.74182e-06 3.10065e-06)
(2 -2.7979e-06 1.29461e-05)
(2 -3.5977e-06 2.34666e-05)
(2 -1.61236e-06 3.43683e-05)
(1.99992 1.33953e-06 2.47155e-07)
(1.99993 3.66067e-06 6.26076e-08)
(1.99993 1.21263e-06 1.72213e-07)
(1.99994 6.3586e-06 -2.20572e-07)
(1.99994 3.36864e-06 -2.80522e-07)
(1.99994 1.02373e-06 -2.9808e-08)
(1.99994 1.09705e-05 -5.93941e-07)
(1.99994 6.01593e-06 -1.03095e-06)
(1.99994 2.88133e-06 -6.33634e-07)
(1.99994 7.95689e-07 8.82113e-07)
(1.99995 1.78886e-05 -1.07092e-06)
(1.99995 1.05802e-05 -2.08998e-06)
(1.99995 5.31196e-06 -1.75954e-06)
(1.99995 2.23854e-06 1.09966e-07)
(1.99995 5.12677e-07 3.0605e-06)
(1.99996 2.71754e-05 -1.63263e-06)
(1.99996 1.74368e-05 -3.47401e-06)
(1.99996 9.65987e-06 -3.4431e-06)
(1.99996 4.30881e-06 -1.41125e-06)
(1.99996 1.42547e-06 2.08538e-06)
(1.99996 1.64795e-07 6.51723e-06)
(1.99996 3.86614e-05 -2.23843e-06)
(1.99996 2.66554e-05 -5.13931e-06)
(1.99997 1.6303e-05 -5.70163e-06)
(1.99997 8.30652e-06 -3.73805e-06)
(1.99997 3.00983e-06 1.5279e-07)
(1.99997 4.1062e-07 5.32067e-06)
(1.99997 -2.47925e-07 1.13305e-05)
(1.99997 5.18804e-05 -2.83129e-06)
(1.99997 3.80608e-05 -6.96539e-06)
(1.99997 2.53324e-05 -8.46534e-06)
(1.99997 1.46209e-05 -6.89338e-06)
(1.99997 6.55388e-06 -2.81807e-06)
(1.99997 1.38028e-06 2.98611e-06)
(1.99997 -8.00609e-07 9.90804e-06)
(1.99997 -7.07506e-07 1.7593e-05)
(1.99998 6.60313e-05 -3.31174e-06)
(1.99998 5.11804e-05 -8.79748e-06)
(1.99998 3.65945e-05 -1.1558e-05)
(1.99998 2.33696e-05 -1.07895e-05)
(1.99998 1.24727e-05 -6.85962e-06)
(1.99998 4.3617e-06 -5.94686e-07)
(1.99998 -5.93577e-07 7.20532e-06)
(1.99998 -2.16516e-06 1.59486e-05)
(1.99998 -1.19658e-06 2.53292e-05)
(1.99999 8.00122e-05 -3.60106e-06)
(1.99999 6.51989e-05 -1.03664e-05)
(1.99999 4.96451e-05 -1.47529e-05)
(1.99999 3.44261e-05 -1.52127e-05)
(1.99999 2.09102e-05 -1.18876e-05)
(1.99999 9.80951e-06 -5.47342e-06)
(1.99999 1.67186e-06 3.07875e-06)
(1.99999 -2.8626e-06 1.29335e-05)
(1.99999 -3.65354e-06 2.34588e-05)
(1.99999 -1.63752e-06 3.4367e-05)
(2 9.25346e-05 -3.63569e-06)
(2 7.9001e-05 -1.14524e-05)
(2 6.36947e-05 -1.76605e-05)
(2 4.73931e-05 -1.98962e-05)
(2 3.17745e-05 -1.76856e-05)
(2 1.79076e-05 -1.15953e-05)
(2 6.49636e-06 -2.54831e-06)
(2 -1.5144e-06 8.35878e-06)
(2 -5.45252e-06 2.02113e-05)
(2 -5.08447e-06 3.22746e-05)
(2 -1.97723e-06 4.4269e-05)
(1.99992 1.29135e-06 2.31048e-07)
(1.99992 3.53708e-06 4.72834e-08)
(1.99992 1.16757e-06 1.40802e-07)
(1.99993 6.17271e-06 -2.32373e-07)
(1.99993 3.25666e-06 -3.08248e-07)
(1.99993 9.83964e-07 -6.49535e-08)
(1.99994 1.07156e-05 -6.07088e-07)
(1.99994 5.84404e-06 -1.06063e-06)
(1.99994 2.77411e-06 -6.70108e-07)
(1.99994 7.55663e-07 8.37393e-07)
(1.99994 1.75672e-05 -1.08219e-06)
(1.99994 1.03485e-05 -2.11895e-06)
(1.99994 5.15174e-06 -1.79867e-06)
(1.99994 2.13696e-06 6.32867e-08)
(1.99994 4.7516e-07 3.00711e-06)
(1.99995 2.6802e-05 -1.6449e-06)
(1.99995 1.71538e-05 -3.50451e-06)
(1.99995 9.45132e-06 -3.48385e-06)
(1.99995 4.15922e-06 -1.46014e-06)
(1.99995 1.32606e-06 2.03157e-06)
(1.99995 1.27097e-07 6.45996e-06)
(1.99996 3.82608e-05 -2.24939e-06)
(1.99996 2.63396e-05 -5.16822e-06)
(1.99996 1.60588e-05 -5.74303e-06)
(1.99996 8.11963e-06 -3.78901e-06)
(1.99996 2.87016e-06 9.72984e-08)
(1.99996 3.16861e-07 5.26455e-06)
(1.99996 -2.82497e-07 1.12738e-05)
(1.99996 5.14888e-05 -2.84547e-06)
(1.99996 3.77418e-05 -6.99644e-06)
(1.99996 2.50768e-05 -8.5054e-06)
(1.99997 1.44162e-05 -6.94412e-06)
(1.99997 6.38991e-06 -2.87448e-06)
(1.99997 1.25295e-06 2.93038e-06)
(1.99997 -8.901e-07 9.85515e-06)
(1.99997 -7.41711e-07 1.75421e-05)
(1.99997 6.5694e-05 -3.33017e-06)
(1.99997 5.08969e-05 -8.83235e-06)
(1.99997 3.63607e-05 -1.15981e-05)
(1.99997 2.31756e-05 -1.08402e-05)
(1.99997 1.23076e-05 -6.91691e-06)
(1.99997 4.22129e-06 -6.49676e-07)
(1.99997 -7.07441e-07 7.15691e-06)
(1.99997 -2.24786e-06 1.59059e-05)
(1.99997 -1.2286e-06 2.52918e-05)
(1.99998 7.97787e-05 -3.62948e-06)
(1.99998 6.49948e-05 -1.04106e-05)
(1.99998 4.94729e-05 -1.47932e-05)
(1.99998 3.42802e-05 -1.52629e-05)
(1.99998 2.07788e-05 -1.1946e-05)
(1.99998 9.68503e-06 -5.52748e-06)
(1.99998 1.55736e-06 3.03739e-06)
(1.99998 -2.95952e-06 1.29036e-05)
(1.99998 -3.72914e-06 2.34362e-05)
(1.99998 -1.66934e-06 3.43525e-05)
(1.99999 9.24354e-05 -3.66668e-06)
(1.99999 7.89088e-05 -1.14958e-05)
(1.99999 6.36151e-05 -1.76939e-05)
(1.99999 4.73263e-05 -1.99383e-05)
(1.99999 3.17113e-05 -1.77371e-05)
(1.99999 1.78374e-05 -1.16436e-05)
(1.99999 6.41684e-06 -2.58039e-06)
(1.99999 -1.59354e-06 8.34456e-06)
(1.99999 -5.5195e-06 2.02076e-05)
(1.99999 -5.13796e-06 3.22757e-05)
(1.99999 -2.00078e-06 4.42768e-05)
(2 0.000102251 -3.38674e-06)
(2 9.13401e-05 -1.18776e-05)
(2 7.76673e-05 -1.99219e-05)
(2 6.15495e-05 -2.43785e-05)
(2 4.4744e-05 -2.40163e-05)
(2 2.86228e-05 -1.88151e-05)
(2 1.41118e-05 -9.69021e-06)
(2 2.40681e-06 2.12935e-06)
(2 -5.37146e-06 1.53502e-05)
(2 -8.14091e-06 2.89218e-05)
(2 -6.2976e-06 4.20107e-05)
(2 -2.23288e-06 5.44588e-05)
(1.99991 1.24022e-06 2.14177e-07)
(1.99992 3.40684e-06 3.41994e-08)
(1.99992 1.12248e-06 1.09819e-07)
(1.99992 5.97381e-06 -2.46672e-07)
(1.99992 3.13418e-06 -3.39235e-07)
(1.99992 9.39415e-07 -1.00135e-07)
(1.99993 1.04392e-05 -6.19161e-07)
(1.99993 5.65835e-06 -1.08949e-06)
(1.99993 2.66042e-06 -7.07113e-07)
(1.99993 7.14379e-07 7.91873e-07)
(1.99994 1.72111e-05 -1.09544e-06)
(1.99994 1.00937e-05 -2.15042e-06)
(1.99994 4.97708e-06 -1.83889e-06)
(1.99994 2.02545e-06 1.47657e-08)
(1.99994 4.33139e-07 2.95056e-06)
(1.99994 2.63753e-05 -1.65558e-06)
(1.99994 1.68328e-05 -3.53463e-06)
(1.99994 9.21643e-06 -3.5278e-06)
(1.99994 3.99262e-06 -1.51365e-06)
(1.99994 1.21898e-06 1.97251e-06)
(1.99994 8.80487e-08 6.39617e-06)
(1.99995 3.77844e-05 -2.26049e-06)
(1.99995 2.59674e-05 -5.19798e-06)
(1.99995 1.57738e-05 -5.78731e-06)
(1.99995 7.90427e-06 -3.84589e-06)
(1.99995 2.71257e-06 3.43644e-08)
(1.99995 2.12985e-07 5.20033e-06)
(1.99995 -3.20766e-07 1.12077e-05)
(1.99996 5.09941e-05 -2.85514e-06)
(1.99996 3.73434e-05 -7.02304e-06)
(1.99996 2.4761e-05 -8.54774e-06)
(1.99996 1.41665e-05 -7.00209e-06)
(1.99996 6.19379e-06 -2.94094e-06)
(1.99996 1.10591e-06 2.86374e-06)
(1.99996 -9.86123e-07 9.79114e-06)
(1.99996 -7.75785e-07 1.74784e-05)
(1.99996 6.52243e-05 -3.34382e-06)
(1.99996 5.05079e-05 -8.86093e-06)
(1.99996 3.60443e-05 -1.16369e-05)
(1.99996 2.29177e-05 -1.08958e-05)
(1.99997 1.20943e-05 -6.98448e-06)
(1.99997 4.04733e-06 -7.18107e-07)
(1.99997 -8.40423e-07 7.0942e-06)
(1.99997 -2.33745e-06 1.58489e-05)
(1.99997 -1.26155e-06 2.52382e-05)
(1.99997 7.9386e-05 -3.64943e-06)
(1.99997 6.46601e-05 -1.04444e-05)
(1.99997 4.91945e-05 -1.48312e-05)
(1.99997 3.40487e-05 -1.53166e-05)
(1.99997 2.05791e-05 -1.20143e-05)
(1.99997 9.50851e-06 -5.59713e-06)
(1.99997 1.40662e-06 2.97726e-06)
(1.99997 -3.07748e-06 1.28547e-05)
(1.99997 -3.81009e-06 2.33957e-05)
(1.99997 -1.69982e-06 3.43193e-05)
(1.99998 9.21725e-05 -3.69907e-06)
(1.99998 7.86768e-05 -1.15422e-05)
(1.99998 6.34182e-05 -1.77316e-05)
(1.99998 4.71619e-05 -1.99901e-05)
(1.99998 3.15656e-05 -1.7806e-05)
(1.99998 1.76963e-05 -1.17147e-05)
(1.99998 6.27805e-06 -2.63661e-06)
(1.99998 -1.71858e-06 8.30845e-06)
(1.99998 -5.61833e-06 2.01856e-05)
(1.99998 -5.21051e-06 3.22623e-05)
(1.99998 -2.03076e-06 4.42724e-05)
(1.99999 0.000102141 -3.42184e-06)
(1.99999 9.12405e-05 -1.19249e-05)
(1.99999 7.75814e-05 -1.9953e-05)
(1.99999 6.14804e-05 -2.44197e-05)
(1.99999 4.46837e-05 -2.40754e-05)
(1.99999 2.85563e-05 -1.88792e-05)
(1.99999 1.40291e-05 -9.73918e-06)
(1.99999 2.31303e-06 2.10665e-06)
(1.99999 -5.45797e-06 1.53485e-05)
(1.99999 -8.20686e-06 2.89293e-05)
(1.99999 -6.34679e-06 4.20219e-05)
(1.99999 -2.25403e-06 5.44751e-05)
(2 0.000107855 -2.78593e-06)
(2 0.000100932 -1.14389e-05)
(2 9.03778e-05 -2.11405e-05)
(2 7.58753e-05 -2.80738e-05)
(2 5.91737e-05 -3.0275e-05)
(2 4.17483e-05 -2.68481e-05)
(2 2.46536e-05 -1.82289e-05)
(2 9.33608e-06 -5.82117e-06)
(2 -2.72553e-06 8.75503e-06)
(2 -9.54833e-06 2.39626e-05)
(2 -1.05492e-05 3.86932e-05)
(2 -7.24371e-06 5.20729e-05)
(2 -2.31864e-06 6.42168e-05)
(1.9999 1.18626e-06 1.96536e-07)
(1.99991 3.26899e-06 1.74618e-08)
(1.99991 1.07157e-06 7.7948e-08)
(1.99992 5.7649e-06 -2.59512e-07)
(1.99992 3.0075e-06 -3.67448e-07)
(1.99992 8.94119e-07 -1.32958e-07)
(1.99992 1.01442e-05 -6.33544e-07)
(1.99992 5.4609e-06 -1.12052e-06)
(1.99992 2.53751e-06 -7.43136e-07)
(1.99992 6.6853e-07 7.47507e-07)
(1.99993 1.68234e-05 -1.10752e-06)
(1.99993 9.81739e-06 -2.18136e-06)
(1.99993 4.78839e-06 -1.88021e-06)
(1.99993 1.90727e-06 -3.48951e-08)
(1.99993 3.89838e-07 2.89211e-06)
(1.99993 2.58999e-05 -1.66802e-06)
(1.99994 1.64774e-05 -3.56726e-06)
(1.99994 8.95834e-06 -3.57338e-06)
(1.99994 3.81118e-06 -1.56972e-06)
(1.99994 1.10163e-06 1.90981e-06)
(1.99994 4.43668e-08 6.32723e-06)
(1.99994 3.72369e-05 -2.26952e-06)
(1.99994 2.55425e-05 -5.22678e-06)
(1.99994 1.54506e-05 -5.83497e-06)
(1.99994 7.66186e-06 -3.90845e-06)
(1.99994 2.53723e-06 -3.51766e-08)
(1.99994 1.01037e-07 5.12887e-06)
(1.99994 -3.60467e-07 1.11325e-05)
(1.99995 5.04023e-05 -2.86418e-06)
(1.99995 3.687e-05 -7.04913e-06)
(1.99995 2.43889e-05 -8.59206e-06)
(1.99995 1.38752e-05 -7.06638e-06)
(1.99995 5.96813e-06 -3.01648e-06)
(1.99995 9.40293e-07 2.78713e-06)
(1.99995 -1.09251e-06 9.71651e-06)
(1.99995 -8.13586e-07 1.74021e-05)
(1.99995 6.46273e-05 -3.3518e-06)
(1.99996 5.00178e-05 -8.8827e-06)
(1.99996 3.56487e-05 -1.16758e-05)
(1.99996 2.25985e-05 -1.09576e-05)
(1.99996 1.18345e-05 -7.06285e-06)
(1.99996 3.84032e-06 -8.00015e-07)
(1.99996 -9.93193e-07 7.01737e-06)
(1.99996 -2.43332e-06 1.57773e-05)
(1.99996 -1.29422e-06 2.51676e-05)
(1.99996 7.88353e-05 -3.66313e-06)
(1.99996 6.4196e-05 -1.04689e-05)
(1.99996 4.88117e-05 -1.48644e-05)
(1.99996 3.37336e-05 -1.53724e-05)
(1.99996 2.03136e-05 -1.20914e-05)
(1.99997 9.28247e-06 -5.68161e-06)
(1.99997 1.22246e-06 2.89905e-06)
(1.99997 -3.21374e-06 1.27872e-05)
(1.99997 -3.89739e-06 2.33368e-05)
(1.99997 -1.73118e-06 3.42658e-05)
(1.99997 9.17265e-05 -3.7216e-06)
(1.99997 7.82901e-05 -1.15753e-05)
(1.99997 6.30923e-05 -1.77632e-05)
(1.99997 4.68907e-05 -2.00415e-05)
(1.99997 3.13318e-05 -1.78818e-05)
(1.99997 1.74845e-05 -1.1801e-05)
(1.99997 6.08662e-06 -2.71456e-06)
(1.99997 -1.87901e-06 8.24784e-06)
(1.99997 -5.73708e-06 2.01402e-05)
(1.99997 -5.28817e-06 3.22281e-05)
(1.99997 -2.05956e-06 4.42471e-05)
(1.99998 0.00010185 -3.45847e-06)
(1.99998 9.09821e-05 -1.19746e-05)
(1.99998 7.73592e-05 -1.99857e-05)
(1.99998 6.12966e-05 -2.44668e-05)
(1.99998 4.45251e-05 -2.41498e-05)
(1.99998 2.84035e-05 -1.89675e-05)
(1.99998 1.3871e-05 -9.81683e-06)
(1.99998 2.157e-06 2.05619e-06)
(1.99998 -5.59092e-06 1.53235e-05)
(1.99998 -8.30409e-06 2.89192e-05)
(1.99998 -6.41467e-06 4.20207e-05)
(1.99998 -2.2814e-06 5.44805e-05)
(1.99999 0.000107729 -2.8242e-06)
(1.99999 0.000100823 -1.1489e-05)
(1.99999 9.02848e-05 -2.11678e-05)
(1.99999 7.58031e-05 -2.81099e-05)
(1.99999 5.91167e-05 -3.03357e-05)
(1.99999 4.16898e-05 -2.69259e-05)
(1.99999 2.45756e-05 -1.82991e-05)
(1.99999 9.23463e-06 -5.86134e-06)
(1.99999 -2.83374e-06 8.74873e-06)
(1.99999 -9.63834e-06 2.39764e-05)
(1.99999 -1.06103e-05 3.87128e-05)
(1.99999 -7.28598e-06 5.20932e-05)
(1.99999 -2.33651e-06 6.42361e-05)
(2 0.000108089 -1.78455e-06)
(2 0.000106375 -1.00132e-05)
(2 0.000100441 -2.10694e-05)
(2 8.90846e-05 -3.04797e-05)
(2 7.39301e-05 -3.57563e-05)
(2 5.65502e-05 -3.51069e-05)
(2 3.78787e-05 -2.79847e-05)
(2 1.94252e-05 -1.5531e-05)
(2 2.9551e-06 2.46668e-07)
(2 -8.65934e-06 1.72315e-05)
(2 -1.36376e-05 3.3814e-05)
(2 -1.26947e-05 4.89565e-05)
(2 -7.78374e-06 6.17584e-05)
(2 -2.12994e-06 7.26649e-05)
(1.9999 1.12991e-06 1.78354e-07)
(1.9999 3.12631e-06 3.48108e-09)
(1.9999 1.02141e-06 4.74878e-08)
(1.99991 5.54635e-06 -2.74843e-07)
(1.99991 2.87156e-06 -3.98307e-07)
(1.99991 8.44236e-07 -1.63801e-07)
(1.99991 9.83294e-06 -6.46501e-07)
(1.99992 5.25276e-06 -1.14969e-06)
(1.99992 2.40965e-06 -7.77664e-07)
(1.99992 6.21947e-07 7.05335e-07)
(1.99992 1.64081e-05 -1.1218e-06)
(1.99992 9.52304e-06 -2.21431e-06)
(1.99992 4.58836e-06 -1.92046e-06)
(1.99992 1.78014e-06 -8.33252e-08)
(1.99992 3.42014e-07 2.83385e-06)
(1.99993 2.53801e-05 -1.67905e-06)
(1.99993 1.60907e-05 -3.59924e-06)
(1.99993 8.67875e-06 -3.62046e-06)
(1.99993 3.61551e-06 -1.62753e-06)
(1.99993 9.77442e-07 1.84497e-06)
(1.99993 -6.20866e-10 6.2545e-06)
(1.99993 3.6624e-05 -2.27993e-06)
(1.99993 2.50694e-05 -5.25757e-06)
(1.99994 1.50931e-05 -5.8844e-06)
(1.99994 7.39581e-06 -3.97443e-06)
(1.99994 2.34647e-06 -1.09314e-07)
(1.99994 -2.15538e-08 5.05169e-06)
(1.99994 -4.04912e-07 1.10495e-05)
(1.99994 4.97191e-05 -2.8705e-06)
(1.99994 3.63266e-05 -7.07303e-06)
(1.99994 2.39643e-05 -8.63906e-06)
(1.99994 1.3545e-05 -7.13684e-06)
(1.99994 5.71435e-06 -3.10023e-06)
(1.99994 7.5616e-07 2.70153e-06)
(1.99994 -1.20724e-06 9.63202e-06)
(1.99994 -8.52808e-07 1.73132e-05)
(1.99995 6.39101e-05 -3.35825e-06)
(1.99995 4.9432e-05 -8.90197e-06)
(1.99995 3.5179e-05 -1.17147e-05)
(1.99995 2.22224e-05 -1.10247e-05)
(1.99995 1.15316e-05 -7.1513e-06)
(1.99995 3.60266e-06 -8.943e-07)
(1.99995 -1.16491e-06 6.92756e-06)
(1.99995 -2.53954e-06 1.56918e-05)
(1.99995 -1.33054e-06 2.50801e-05)
(1.99995 7.81327e-05 -3.67e-06)
(1.99995 6.36074e-05 -1.04836e-05)
(1.99996 4.83286e-05 -1.48946e-05)
(1.99996 3.33387e-05 -1.54316e-05)
(1.99996 1.99849e-05 -1.21785e-05)
(1.99996 9.00841e-06 -5.78129e-06)
(1.99996 1.00481e-06 2.80304e-06)
(1.99996 -3.36942e-06 1.27015e-05)
(1.99996 -3.99049e-06 2.32592e-05)
(1.99996 -1.7622e-06 3.41907e-05)
(1.99996 9.10981e-05 -3.73664e-06)
(1.99996 7.77495e-05 -1.1596e-05)
(1.99996 6.26388e-05 -1.77863e-05)
(1.99996 4.65145e-05 -2.00906e-05)
(1.99996 3.1012e-05 -1.79631e-05)
(1.99996 1.72046e-05 -1.19014e-05)
(1.99996 5.84502e-06 -2.81345e-06)
(1.99997 -2.07208e-06 8.16331e-06)
(1.99997 -5.87305e-06 2.00715e-05)
(1.99997 -5.37201e-06 3.21715e-05)
(1.99997 -2.08949e-06 4.41977e-05)
(1.99997 0.000101355 -3.48436e-06)
(1.99997 9.05463e-05 -1.20088e-05)
(1.99997 7.69851e-05 -2.00091e-05)
(1.99997 6.09838e-05 -2.45086e-05)
(1.99997 4.42571e-05 -2.42263e-05)
(1.99997 2.81589e-05 -1.90679e-05)
(1.99997 1.36402e-05 -9.91696e-06)
(1.99997 1.94849e-06 1.97623e-06)
(1.99997 -5.75786e-06 1.52678e-05)
(1.99997 -8.42076e-06 2.88821e-05)
(1.99997 -6.48838e-06 4.19972e-05)
(1.99997 -2.30808e-06 5.44631e-05)
(1.99998 0.000107406 -2.86466e-06)
(1.99998 0.000100539 -1.15419e-05)
(1.99998 9.0038e-05 -2.11948e-05)
(1.99998 7.5599e-05 -2.81473e-05)
(1.99998 5.89456e-05 -3.04071e-05)
(1.99998 4.15295e-05 -2.70268e-05)
(1.99998 2.44057e-05 -1.8401e-05)
(1.99998 9.05268e-06 -5.93551e-06)
(1.99998 -3.0064e-06 8.71205e-06)
(1.99998 -9.77486e-06 2.39668e-05)
(1.99998 -1.07025e-05 3.87171e-05)
(1.99998 -7.34684e-06 5.21039e-05)
(1.99998 -2.36033e-06 6.42429e-05)
(1.99999 0.000107933 -1.82411e-06)
(1.99999 0.000106251 -1.00637e-05)
(1.99999 0.000100338 -2.10898e-05)
(1.99999 8.90072e-05 -3.05073e-05)
(1.99999 7.3875e-05 -3.58123e-05)
(1.99999 5.65017e-05 -3.51918e-05)
(1.99999 3.7813e-05 -2.80762e-05)
(1.99999 1.93264e-05 -1.55963e-05)
(1.99999 2.83159e-06 2.25094e-07)
(1.99999 -8.77856e-06 1.72456e-05)
(1.99999 -1.37254e-05 3.3843e-05)
(1.99999 -1.27457e-05 4.89858e-05)
(1.99999 -7.81646e-06 6.17815e-05)
(1.99999 -2.14405e-06 7.26737e-05)
(2 0.000102526 -6.56416e-07)
(2 0.000106494 -7.42326e-06)
(2 0.000106442 -1.94942e-05)
(2 9.97627e-05 -3.12896e-05)
(2 8.7652e-05 -3.98147e-05)
(2 7.17889e-05 -4.27257e-05)
(2 5.30135e-05 -3.83943e-05)
(2 3.24933e-05 -2.69334e-05)
(2 1.19624e-05 -1.03986e-05)
(2 -4.88841e-06 8.42551e-06)
(2 -1.49253e-05 2.71462e-05)
(2 -1.76953e-05 4.43545e-05)
(2 -1.43907e-05 5.90544e-05)
(2 -7.58505e-06 7.03085e-05)
(2 -1.89279e-06 7.92117e-05)
(1.99989 1.07143e-06 1.59663e-07)
(1.9999 2.97805e-06 -1.4146e-08)
(1.9999 9.65775e-07 1.70837e-08)
(1.9999 5.32165e-06 -2.8819e-07)
(1.9999 2.73362e-06 -4.24998e-07)
(1.9999 7.94378e-07 -1.90055e-07)
(1.99991 9.50885e-06 -6.61628e-07)
(1.99991 5.03655e-06 -1.17998e-06)
(1.99991 2.27424e-06 -8.08796e-07)
(1.99991 5.71154e-07 6.67564e-07)
(1.99991 1.59686e-05 -1.13448e-06)
(1.99991 9.21263e-06 -2.2454e-06)
(1.99992 4.37776e-06 -1.95939e-06)
(1.99992 1.6482e-06 -1.29583e-07)
(1.99992 2.9359e-07 2.77735e-06)
(1.99992 2.48207e-05 -1.69205e-06)
(1.99992 1.56769e-05 -3.63303e-06)
(1.99992 8.38144e-06 -3.66664e-06)
(1.99992 3.40859e-06 -1.68435e-06)
(1.99992 8.44329e-07 1.78023e-06)
(1.99992 -5.01375e-08 6.18004e-06)
(1.99993 3.59508e-05 -2.28852e-06)
(1.99993 2.45525e-05 -5.28715e-06)
(1.99993 1.47044e-05 -5.9354e-06)
(1.99993 7.10798e-06 -4.04289e-06)
(1.99993 2.14107e-06 -1.86425e-07)
(1.99993 -1.51187e-07 4.9705e-06)
(1.99993 -4.50681e-07 1.09599e-05)
(1.99993 4.89512e-05 -2.87765e-06)
(1.99993 3.57185e-05 -7.09785e-06)
(1.99993 2.34918e-05 -8.68717e-06)
(1.99994 1.318e-05 -7.21118e-06)
(1.99994 5.43606e-06 -3.18988e-06)
(1.99994 5.55933e-07 2.60905e-06)
(1.99994 -1.33293e-06 9.53914e-06)
(1.99994 -8.96821e-07 1.72128e-05)
(1.99994 6.30794e-05 -3.36122e-06)
(1.99994 4.87563e-05 -8.91727e-06)
(1.99994 3.46397e-05 -1.17545e-05)
(1.99994 2.1793e-05 -1.10974e-05)
(1.99994 1.11884e-05 -7.24903e-06)
(1.99994 3.33559e-06 -9.99822e-07)
(1.99994 -1.35575e-06 6.8258e-06)
(1.99994 -2.65413e-06 1.55929e-05)
(1.99994 -1.36813e-06 2.49754e-05)
(1.99994 7.72861e-05 -3.67453e-06)
(1.99995 6.29006e-05 -1.04936e-05)
(1.99995 4.77511e-05 -1.49219e-05)
(1.99995 3.28691e-05 -1.54939e-05)
(1.99995 1.95974e-05 -1.22752e-05)
(1.99995 8.68937e-06 -5.89522e-06)
(1.99995 7.55596e-07 2.69077e-06)
(1.99995 -3.54403e-06 1.25991e-05)
(1.99995 -4.09358e-06 2.31634e-05)
(1.99995 -1.79673e-06 3.40935e-05)
(1.99995 9.02944e-05 -3.74395e-06)
(1.99995 7.70605e-05 -1.16044e-05)
(1.99995 6.20623e-05 -1.78025e-05)
(1.99996 4.60376e-05 -2.01393e-05)
(1.99996 3.061e-05 -1.80517e-05)
(1.99996 1.68587e-05 -1.20167e-05)
(1.99996 5.55402e-06 -2.93316e-06)
(1.99996 -2.29854e-06 8.05561e-06)
(1.99996 -6.02759e-06 1.99797e-05)
(1.99996 -5.46127e-06 3.20918e-05)
(1.99996 -2.11911e-06 4.4122e-05)
(1.99996 0.000100658 -3.50205e-06)
(1.99996 8.99334e-05 -1.20284e-05)
(1.99996 7.646e-05 -2.00204e-05)
(1.99996 6.05434e-05 -2.45431e-05)
(1.99996 4.38811e-05 -2.43033e-05)
(1.99996 2.78245e-05 -1.91793e-05)
(1.99996 1.33391e-05 -1.00385e-05)
(1.99996 1.68993e-06 1.86754e-06)
(1.99997 -5.95596e-06 1.51816e-05)
(1.99997 -8.55397e-06 2.88171e-05)
(1.99997 -6.56886e-06 4.19483e-05)
(1.99997 -2.33636e-06 5.44181e-05)
(1.99997 0.000106867 -2.89449e-06)
(1.99997 0.00010006 -1.15788e-05)
(1.99997 8.96181e-05 -2.12107e-05)
(1.99997 7.52442e-05 -2.81747e-05)
(1.99997 5.86428e-05 -3.04741e-05)
(1.99997 4.12544e-05 -2.71344e-05)
(1.99997 2.41396e-05 -1.85233e-05)
(1.99997 8.7966e-06 -6.04193e-06)
(1.99997 -3.23025e-06 8.6372e-06)
(1.99997 -9.94433e-06 2.39213e-05)
(1.99997 -1.0815e-05 3.86928e-05)
(1.99997 -7.41527e-06 5.20918e-05)
(1.99997 -2.38414e-06 6.42226e-05)
(1.99998 0.000107571 -1.86733e-06)
(1.99998 0.000105939 -1.01185e-05)
(1.99998 0.000100066 -2.11091e-05)
(1.99998 8.87821e-05 -3.05319e-05)
(1.99998 7.36906e-05 -3.58726e-05)
(1.99998 5.63361e-05 -3.52952e-05)
(1.99998 3.76385e-05 -2.82e-05)
(1.99998 1.91277e-05 -1.5701e-05)
(1.99998 2.62292e-06 1.65149e-07)
(1.99998 -8.96357e-06 1.72283e-05)
(1.99998 -1.38597e-05 3.38509e-05)
(1.99998 -1.28278e-05 4.90031e-05)
(1.99998 -7.86755e-06 6.17947e-05)
(1.99998 -2.16375e-06 7.26589e-05)
(1.99999 0.000102322 -6.92841e-07)
(1.99999 0.000106343 -7.47045e-06)
(1.99999 0.000106321 -1.95031e-05)
(1.99999 9.9675e-05 -3.13027e-05)
(1.99999 8.75954e-05 -3.98599e-05)
(1.99999 7.17492e-05 -4.28093e-05)
(1.99999 5.29646e-05 -3.85013e-05)
(1.99999 3.2408e-05 -2.70277e-05)
(1.99999 1.18354e-05 -1.04466e-05)
(1.99999 -5.03219e-06 8.42888e-06)
(1.99999 -1.5048e-05 2.71803e-05)
(1.99999 -1.77718e-05 4.43946e-05)
(1.99999 -1.4426e-05 5.90853e-05)
(1.99999 -7.60671e-06 7.03192e-05)
(1.99999 -1.90218e-06 7.91846e-05)
(1.99999 9.25888e-05 1.21653e-07)
(2 0.000101009 -4.39964e-06)
(2 0.000107222 -1.60734e-05)
(2 0.000106446 -3.01669e-05)
(2 9.88344e-05 -4.20822e-05)
(2 8.59543e-05 -4.88972e-05)
(2 6.86662e-05 -4.84209e-05)
(2 4.77403e-05 -3.95357e-05)
(2 2.4252e-05 -2.32707e-05)
(2 2.25786e-06 -2.90882e-06)
(2 -1.36976e-05 1.8237e-05)
(2 -2.16428e-05 3.79162e-05)
(2 -2.14513e-05 5.49339e-05)
(2 -1.50462e-05 6.83102e-05)
(2 -7.23085e-06 7.72648e-05)
(2 -1.88248e-06 8.41457e-05)
(1.99988 1.01136e-06 1.40723e-07)
(1.99989 2.82732e-06 -2.84165e-08)
(1.99989 9.11887e-07 -1.08463e-08)
(1.9999 5.09129e-06 -3.03831e-07)
(1.9999 2.58837e-06 -4.53411e-07)
(1.9999 7.40446e-07 -2.12283e-07)
(1.9999 9.17425e-06 -6.74713e-07)
(1.9999 4.81355e-06 -1.20687e-06)
(1.9999 2.13621e-06 -8.36068e-07)
(1.9999 5.20505e-07 6.35127e-07)
(1.99991 1.55092e-05 -1.14913e-06)
(1.99991 8.89001e-06 -2.27713e-06)
(1.99991 4.15987e-06 -1.9944e-06)
(1.99991 1.50934e-06 -1.71018e-07)
(1.99991 2.41145e-07 2.72489e-06)
(1.99991 2.42263e-05 -1.70317e-06)
(1.99991 1.52393e-05 -3.66466e-06)
(1.99991 8.06836e-06 -3.71152e-06)
(1.99992 3.19132e-06 -1.73911e-06)
(1.99992 7.06628e-07 1.71741e-06)
(1.99992 -1.00139e-07 6.10558e-06)
(1.99992 3.52234e-05 -2.29874e-06)
(1.99992 2.39965e-05 -5.31802e-06)
(1.99992 1.4289e-05 -5.98544e-06)
(1.99992 6.80242e-06 -4.11075e-06)
(1.99992 1.92426e-06 -2.63768e-07)
(1.99992 -2.89854e-07 4.88754e-06)
(1.99992 -5.01006e-07 1.08656e-05)
(1.99992 4.81047e-05 -2.88247e-06)
(1.99993 3.5051e-05 -7.12047e-06)
(1.99993 2.29758e-05 -8.73628e-06)
(1.99993 1.27835e-05 -7.28836e-06)
(1.99993 5.13526e-06 -3.2836e-06)
(1.99993 3.40462e-07 2.51154e-06)
(1.99993 -1.46587e-06 9.43948e-06)
(1.99993 -9.42112e-07 1.71017e-05)
(1.99993 6.21428e-05 -3.36444e-06)
(1.99993 4.79969e-05 -8.932e-06)
(1.99993 3.40365e-05 -1.1794e-05)
(1.99993 2.13155e-05 -1.11734e-05)
(1.99994 1.08091e-05 -7.35364e-06)
(1.99994 3.04278e-06 -1.11405e-06)
(1.99994 -1.56334e-06 6.71433e-06)
(1.99994 -2.77981e-06 1.5482e-05)
(1.99994 -1.4104e-06 2.4854e-05)
(1.99994 7.63033e-05 -3.67493e-06)
(1.99994 6.20822e-05 -1.04975e-05)
(1.99994 4.70846e-05 -1.49476e-05)
(1.99994 3.23294e-05 -1.55598e-05)
(1.99994 1.91548e-05 -1.2381e-05)
(1.99994 8.32794e-06 -6.02226e-06)
(1.99994 4.75733e-07 2.56361e-06)
(1.99994 -3.73801e-06 1.2481e-05)
(1.99994 -4.20463e-06 2.30495e-05)
(1.99994 -1.83232e-06 3.39731e-05)