/*--------------------------------*- C++ -*----------------------------------*\
  =========                 |
  \\      /  F ield         | OpenFOAM: The Open Source CFD Toolbox
   \\    /   O peration     | Website:  https://openfoam.org
    \\  /    A nd           | Version:  dev
     \\/     M anipulation  |
\*---------------------------------------------------------------------------*/
FoamFile
{
    format      ascii;
    class       volVectorField;
    location    "1";
    object      U;
}
// * * * * * * * * * * * * * * * * * * * * * * * * * * * * * * * * * * * * * //

dimensions      [0 1 -1 0 0 0 0];

internalField   nonuniform List<vector> 
400
(
(-6.27377e-15 -6.27377e-15 0)
(-1.27954e-14 -7.41222e-15 0)
(-1.31722e-14 -8.74757e-15 0)
(-1.32508e-14 -1.0283e-14 0)
(-1.29031e-14 -1.1996e-14 0)
(-1.1996e-14 -1.38235e-14 0)
(-1.04199e-14 -1.56489e-14 0)
(-8.13039e-15 -1.73002e-14 0)
(-5.1894e-15 -1.85702e-14 0)
(-1.78581e-15 -1.9265e-14 0)
(1.78581e-15 -1.9265e-14 0)
(5.1894e-15 -1.85702e-14 0)
(8.13039e-15 -1.73002e-14 0)
(1.04199e-14 -1.56489e-14 0)
(1.1996e-14 -1.38235e-14 0)
(1.29031e-14 -1.1996e-14 0)
(1.32508e-14 -1.0283e-14 0)
(1.31722e-14 -8.74757e-15 0)
(1.27954e-14 -7.41222e-15 0)
(6.27377e-15 -6.27377e-15 0)
(-7.41222e-15 -1.27954e-14 0)
(-1.52692e-14 -1.52692e-14 0)
(-1.6043e-14 -1.82261e-14 0)
(-1.64992e-14 -2.16996e-14 0)
(-1.64437e-14 -2.56679e-14 0)
(-1.56489e-14 -3.00111e-14 0)
(-1.38966e-14 -3.44644e-14 0)
(-1.10517e-14 -3.85941e-14 0)
(-7.15424e-15 -4.18376e-14 0)
(-2.48058e-15 -4.3637e-14 0)
(2.48058e-15 -4.3637e-14 0)
(7.15424e-15 -4.18376e-14 0)
(1.10517e-14 -3.85941e-14 0)
(1.38966e-14 -3.44644e-14 0)
(1.56489e-14 -3.00111e-14 0)
(1.64437e-14 -2.56679e-14 0)
(1.64992e-14 -2.16996e-14 0)
(1.6043e-14 -1.82261e-14 0)
(1.52692e-14 -1.52692e-14 0)
(7.41222e-15 -1.27954e-14 0)
(-8.74757e-15 -1.31722e-14 0)
(-1.82261e-14 -1.6043e-14 0)
(-1.96025e-14 -1.96025e-14 0)
(-2.06925e-14 -2.39622e-14 0)
(-2.12147e-14 -2.91812e-14 0)
(-2.07925e-14 -3.51905e-14 0)
(-1.9003e-14 -4.1685e-14 0)
(-1.55035e-14 -4.80205e-14 0)
(-1.02322e-14 -5.32162e-14 0)
(-3.5852e-15 -5.61849e-14 0)
(3.5852e-15 -5.61849e-14 0)
(1.02322e-14 -5.32162e-14 0)
(1.55035e-14 -4.80205e-14 0)
(1.9003e-14 -4.1685e-14 0)
(2.07925e-14 -3.51905e-14 0)
(2.12147e-14 -2.91812e-14 0)
(2.06925e-14 -2.39622e-14 0)
(1.96025e-14 -1.96025e-14 0)
(1.82261e-14 -1.6043e-14 0)
(8.74757e-15 -1.31722e-14 0)
(-1.0283e-14 -1.32508e-14 0)
(-2.16996e-14 -1.64992e-14 0)
(-2.39622e-14 -2.06925e-14 0)
(-2.60779e-14 -2.60779e-14 0)
(-2.7672e-14 -3.28902e-14 0)
(-2.81527e-14 -4.12407e-14 0)
(-2.67266e-14 -5.09017e-14 0)
(-2.25828e-14 -6.10004e-14 0)
(-1.53186e-14 -6.98112e-14 0)
(-5.44933e-15 -7.50719e-14 0)
(5.44933e-15 -7.50719e-14 0)
(1.53186e-14 -6.98112e-14 0)
(2.25828e-14 -6.10004e-14 0)
(2.67266e-14 -5.09017e-14 0)
(2.81527e-14 -4.12407e-14 0)
(2.7672e-14 -3.28902e-14 0)
(2.60779e-14 -2.60779e-14 0)
(2.39622e-14 -2.06925e-14 0)
(2.16996e-14 -1.64992e-14 0)
(1.0283e-14 -1.32508e-14 0)
(-1.1996e-14 -1.29031e-14 0)
(-2.56679e-14 -1.64437e-14 0)
(-2.91812e-14 -2.12147e-14 0)
(-3.28902e-14 -2.7672e-14 0)
(-3.63774e-14 -3.63774e-14 0)
(-3.88041e-14 -4.78934e-14 0)
(-3.87627e-14 -6.24452e-14 0)
(-3.44131e-14 -7.91856e-14 0)
(-2.43037e-14 -9.52002e-14 0)
(-8.84589e-15 -1.0545e-13 0)
(8.84589e-15 -1.0545e-13 0)
(2.43037e-14 -9.52002e-14 0)
(3.44131e-14 -7.91856e-14 0)
(3.87627e-14 -6.24452e-14 0)
(3.88041e-14 -4.78934e-14 0)
(3.63774e-14 -3.63774e-14 0)
(3.28902e-14 -2.7672e-14 0)
(2.91812e-14 -2.12147e-14 0)
(2.56679e-14 -1.64437e-14 0)
(1.1996e-14 -1.29031e-14 0)
(-1.38235e-14 -1.1996e-14 0)
(-3.00111e-14 -1.56489e-14 0)
(-3.51905e-14 -2.07925e-14 0)
(-4.12407e-14 -2.81527e-14 0)
(-4.78934e-14 -3.88041e-14 0)
(-5.42206e-14 -5.42206e-14 0)
(-5.80188e-14 -7.6016e-14 0)
(-5.53378e-14 -1.04674e-13 0)
(-4.15826e-14 -1.36288e-13 0)
(-1.56987e-14 -1.59059e-13 0)
(1.56987e-14 -1.59059e-13 0)
(4.15826e-14 -1.36288e-13 0)
(5.53378e-14 -1.04674e-13 0)
(5.80188e-14 -7.6016e-14 0)
(5.42206e-14 -5.42206e-14 0)
(4.78934e-14 -3.88041e-14 0)
(4.12407e-14 -2.81527e-14 0)
(3.51905e-14 -2.07925e-14 0)
(3.00111e-14 -1.56489e-14 0)
(1.38235e-14 -1.1996e-14 0)
(-1.56489e-14 -1.04199e-14 0)
(-3.44644e-14 -1.38966e-14 0)
(-4.1685e-14 -1.9003e-14 0)
(-5.09017e-14 -2.67266e-14 0)
(-6.24452e-14 -3.87627e-14 0)
(-7.6016e-14 -5.80188e-14 0)
(-8.92166e-14 -8.92166e-14 0)
(-9.46847e-14 -1.38451e-13 0)
(-7.86884e-14 -2.06583e-13 0)
(-3.16174e-14 -2.67834e-13 0)
(3.16174e-14 -2.67834e-13 0)
(7.86884e-14 -2.06583e-13 0)
(9.46847e-14 -1.38451e-13 0)
(8.92166e-14 -8.92166e-14 0)
(7.6016e-14 -5.80188e-14 0)
(6.24452e-14 -3.87627e-14 0)
(5.09017e-14 -2.67266e-14 0)
(4.1685e-14 -1.9003e-14 0)
(3.44644e-14 -1.38966e-14 0)
(1.56489e-14 -1.04199e-14 0)
(-1.73002e-14 -8.13039e-15 0)
(-3.85941e-14 -1.10517e-14 0)
(-4.80205e-14 -1.55035e-14 0)
(-6.10004e-14 -2.25828e-14 0)
(-7.91856e-14 -3.44131e-14 0)
(-1.04674e-13 -5.53378e-14 0)
(-1.38451e-13 -9.46847e-14 0)
(-1.72704e-13 -1.72704e-13 0)
(-1.70966e-13 -3.26322e-13 0)
(-7.695e-14 -5.46413e-13 0)
(7.695e-14 -5.46413e-13 0)
(1.70966e-13 -3.26322e-13 0)
(1.72704e-13 -1.72704e-13 0)
(1.38451e-13 -9.46847e-14 0)
(1.04674e-13 -5.53378e-14 0)
(7.91856e-14 -3.44131e-14 0)
(6.10004e-14 -2.25828e-14 0)
(4.80205e-14 -1.55035e-14 0)
(3.85941e-14 -1.10517e-14 0)
(1.73002e-14 -8.13039e-15 0)
(-1.85702e-14 -5.1894e-15 0)
(-4.18376e-14 -7.15424e-15 0)
(-5.32162e-14 -1.02322e-14 0)
(-6.98112e-14 -1.53186e-14 0)
(-9.52002e-14 -2.43037e-14 0)
(-1.36288e-13 -4.15826e-14 0)
(-2.06583e-13 -7.86884e-14 0)
(-3.26322e-13 -1.70966e-13 0)
(-4.52397e-13 -4.52397e-13 0)
(-2.51708e-13 -1.59726e-12 0)
(2.51708e-13 -1.59726e-12 0)
(4.52397e-13 -4.52397e-13 0)
(3.26322e-13 -1.70966e-13 0)
(2.06583e-13 -7.86884e-14 0)
(1.36288e-13 -4.15826e-14 0)
(9.52002e-14 -2.43037e-14 0)
(6.98112e-14 -1.53186e-14 0)
(5.32162e-14 -1.02322e-14 0)
(4.18376e-14 -7.15424e-15 0)
(1.85702e-14 -5.1894e-15 0)
(-1.9265e-14 -1.78581e-15 0)
(-4.3637e-14 -2.48058e-15 0)
(-5.61849e-14 -3.5852e-15 0)
(-7.50719e-14 -5.44933e-15 0)
(-1.0545e-13 -8.84589e-15 0)
(-1.59059e-13 -1.56987e-14 0)
(-2.67834e-13 -3.16174e-14 0)
(-5.46413e-13 -7.695e-14 0)
(-1.59726e-12 -2.51708e-13 0)
(-1.22182e-12 -1.22182e-12 0)
(1.22182e-12 -1.22182e-12 0)
(1.59726e-12 -2.51708e-13 0)
(5.46413e-13 -7.695e-14 0)
(2.67834e-13 -3.16174e-14 0)
(1.59059e-13 -1.56987e-14 0)
(1.0545e-13 -8.84589e-15 0)
(7.50719e-14 -5.44933e-15 0)
(5.61849e-14 -3.5852e-15 0)
(4.3637e-14 -2.48058e-15 0)
(1.9265e-14 -1.78581e-15 0)
(-1.9265e-14 1.78581e-15 0)
(-4.3637e-14 2.48058e-15 0)
(-5.61849e-14 3.5852e-15 0)
(-7.50719e-14 5.44933e-15 0)
(-1.0545e-13 8.84589e-15 0)
(-1.59059e-13 1.56987e-14 0)
(-2.67834e-13 3.16174e-14 0)
(-5.46413e-13 7.695e-14 0)
(-1.59726e-12 2.51708e-13 0)
(-1.22182e-12 1.22182e-12 0)
(1.22182e-12 1.22182e-12 0)
(1.59726e-12 2.51708e-13 0)
(5.46413e-13 7.695e-14 0)
(2.67834e-13 3.16174e-14 0)
(1.59059e-13 1.56987e-14 0)
(1.0545e-13 8.84589e-15 0)
(7.50719e-14 5.44933e-15 0)
(5.61849e-14 3.5852e-15 0)
(4.3637e-14 2.48058e-15 0)
(1.9265e-14 1.78581e-15 0)
(-1.85702e-14 5.1894e-15 0)
(-4.18376e-14 7.15424e-15 0)
(-5.32162e-14 1.02322e-14 0)
(-6.98112e-14 1.53186e-14 0)
(-9.52002e-14 2.43037e-14 0)
(-1.36288e-13 4.15826e-14 0)
(-2.06583e-13 7.86884e-14 0)
(-3.26322e-13 1.70966e-13 0)
(-4.52397e-13 4.52397e-13 0)
(-2.51708e-13 1.59726e-12 0)
(2.51708e-13 1.59726e-12 0)
(4.52397e-13 4.52397e-13 0)
(3.26322e-13 1.70966e-13 0)
(2.06583e-13 7.86884e-14 0)
(1.36288e-13 4.15826e-14 0)
(9.52002e-14 2.43037e-14 0)
(6.98112e-14 1.53186e-14 0)
(5.32162e-14 1.02322e-14 0)
(4.18376e-14 7.15424e-15 0)
(1.85702e-14 5.1894e-15 0)
(-1.73002e-14 8.13039e-15 0)
(-3.85941e-14 1.10517e-14 0)
(-4.80205e-14 1.55035e-14 0)
(-6.10004e-14 2.25828e-14 0)
(-7.91856e-14 3.44131e-14 0)
(-1.04674e-13 5.53378e-14 0)
(-1.38451e-13 9.46847e-14 0)
(-1.72704e-13 1.72704e-13 0)
(-1.70966e-13 3.26322e-13 0)
(-7.695e-14 5.46413e-13 0)
(7.695e-14 5.46413e-13 0)
(1.70966e-13 3.26322e-13 0)
(1.72704e-13 1.72704e-13 0)
(1.38451e-13 9.46847e-14 0)
(1.04674e-13 5.53378e-14 0)
(7.91856e-14 3.44131e-14 0)
(6.10004e-14 2.25828e-14 0)
(4.80205e-14 1.55035e-14 0)
(3.85941e-14 1.10517e-14 0)
(1.73002e-14 8.13039e-15 0)
(-1.56489e-14 1.04199e-14 0)
(-3.44644e-14 1.38966e-14 0)
(-4.1685e-14 1.9003e-14 0)
(-5.09017e-14 2.67266e-14 0)
(-6.24452e-14 3.87627e-14 0)
(-7.6016e-14 5.80188e-14 0)
(-8.92166e-14 8.92166e-14 0)
(-9.46847e-14 1.38451e-13 0)
(-7.86884e-14 2.06583e-13 0)
(-3.16174e-14 2.67834e-13 0)
(3.16174e-14 2.67834e-13 0)
(7.86884e-14 2.06583e-13 0)
(9.46847e-14 1.38451e-13 0)
(8.92166e-14 8.92166e-14 0)
(7.6016e-14 5.80188e-14 0)
(6.24452e-14 3.87627e-14 0)
(5.09017e-14 2.67266e-14 0)
(4.1685e-14 1.9003e-14 0)
(3.44644e-14 1.38966e-14 0)
(1.56489e-14 1.04199e-14 0)
(-1.38235e-14 1.1996e-14 0)
(-3.00111e-14 1.56489e-14 0)
(-3.51905e-14 2.07925e-14 0)
(-4.12407e-14 2.81527e-14 0)
(-4.78934e-14 3.88041e-14 0)
(-5.42206e-14 5.42206e-14 0)
(-5.80188e-14 7.6016e-14 0)
(-5.53378e-14 1.04674e-13 0)
(-4.15826e-14 1.36288e-13 0)
(-1.56987e-14 1.59059e-13 0)
(1.56987e-14 1.59059e-13 0)
(4.15826e-14 1.36288e-13 0)
(5.53378e-14 1.04674e-13 0)
(5.80188e-14 7.6016e-14 0)
(5.42206e-14 5.42206e-14 0)
(4.78934e-14 3.88041e-14 0)
(4.12407e-14 2.81527e-14 0)
(3.51905e-14 2.07925e-14 0)
(3.00111e-14 1.56489e-14 0)
(1.38235e-14 1.1996e-14 0)
(-1.1996e-14 1.29031e-14 0)
(-2.56679e-14 1.64437e-14 0)
(-2.91812e-14 2.12147e-14 0)
(-3.28902e-14 2.7672e-14 0)
(-3.63774e-14 3.63774e-14 0)
(-3.88041e-14 4.78934e-14 0)
(-3.87627e-14 6.24452e-14 0)
(-3.44131e-14 7.91856e-14 0)
(-2.43037e-14 9.52002e-14 0)
(-8.84589e-15 1.0545e-13 0)
(8.84589e-15 1.0545e-13 0)
(2.43037e-14 9.52002e-14 0)
(3.44131e-14 7.91856e-14 0)
(3.87627e-14 6.24452e-14 0)
(3.88041e-14 4.78934e-14 0)
(3.63774e-14 3.63774e-14 0)
(3.28902e-14 2.7672e-14 0)
(2.91812e-14 2.12147e-14 0)
(2.56679e-14 1.64437e-14 0)
(1.1996e-14 1.29031e-14 0)
(-1.0283e-14 1.32508e-14 0)
(-2.16996e-14 1.64992e-14 0)
(-2.39622e-14 2.06925e-14 0)
(-2.60779e-14 2.60779e-14 0)
(-2.7672e-14 3.28902e-14 0)
(-2.81527e-14 4.12407e-14 0)
(-2.67266e-14 5.09017e-14 0)
(-2.25828e-14 6.10004e-14 0)
(-1.53186e-14 6.98112e-14 0)
(-5.44933e-15 7.50719e-14 0)
(5.44933e-15 7.50719e-14 0)
(1.53186e-14 6.98112e-14 0)
(2.25828e-14 6.10004e-14 0)
(2.67266e-14 5.09017e-14 0)
(2.81527e-14 4.12407e-14 0)
(2.7672e-14 3.28902e-14 0)
(2.60779e-14 2.60779e-14 0)
(2.39622e-14 2.06925e-14 0)
(2.16996e-14 1.64992e-14 0)
(1.0283e-14 1.32508e-14 0)
(-8.74757e-15 1.31722e-14 0)
(-1.82261e-14 1.6043e-14 0)
(-1.96025e-14 1.96025e-14 0)
(-2.06925e-14 2.39622e-14 0)
(-2.12147e-14 2.91812e-14 0)
(-2.07925e-14 3.51905e-14 0)
(-1.9003e-14 4.1685e-14 0)
(-1.55035e-14 4.80205e-14 0)
(-1.02322e-14 5.32162e-14 0)
(-3.5852e-15 5.61849e-14 0)
(3.5852e-15 5.61849e-14 0)
(1.02322e-14 5.32162e-14 0)
(1.55035e-14 4.80205e-14 0)
(1.9003e-14 4.1685e-14 0)
(2.07925e-14 3.51905e-14 0)
(2.12147e-14 2.91812e-14 0)
(2.06925e-14 2.39622e-14 0)
(1.96025e-14 1.96025e-14 0)
(1.82261e-14 1.6043e-14 0)
(8.74757e-15 1.31722e-14 0)
(-7.41222e-15 1.27954e-14 0)
(-1.52692e-14 1.52692e-14 0)
(-1.6043e-14 1.82261e-14 0)
(-1.64992e-14 2.16996e-14 0)
(-1.64437e-14 2.56679e-14 0)
(-1.56489e-14 3.00111e-14 0)
(-1.38966e-14 3.44644e-14 0)
(-1.10517e-14 3.85941e-14 0)
(-7.15424e-15 4.18376e-14 0)
(-2.48058e-15 4.3637e-14 0)
(2.48058e-15 4.3637e-14 0)
(7.15424e-15 4.18376e-14 0)
(1.10517e-14 3.85941e-14 0)
(1.38966e-14 3.44644e-14 0)
(1.56489e-14 3.00111e-14 0)
(1.64437e-14 2.56679e-14 0)
(1.64992e-14 2.16996e-14 0)
(1.6043e-14 1.82261e-14 0)
(1.52692e-14 1.52692e-14 0)
(7.41222e-15 1.27954e-14 0)
(-6.27377e-15 6.27377e-15 0)
(-1.27954e-14 7.41222e-15 0)
(-1.31722e-14 8.74757e-15 0)
(-1.32508e-14 1.0283e-14 0)
(-1.29031e-14 1.1996e-14 0)
(-1.1996e-14 1.38235e-14 0)
(-1.04199e-14 1.56489e-14 0)
(-8.13039e-15 1.73002e-14 0)
(-5.1894e-15 1.85702e-14 0)
(-1.78581e-15 1.9265e-14 0)
(1.78581e-15 1.9265e-14 0)
(5.1894e-15 1.85702e-14 0)
(8.13039e-15 1.73002e-14 0)
(1.04199e-14 1.56489e-14 0)
(1.1996e-14 1.38235e-14 0)
(1.29031e-14 1.1996e-14 0)
(1.32508e-14 1.0283e-14 0)
(1.31722e-14 8.74757e-15 0)
(1.27954e-14 7.41222e-15 0)
(6.27377e-15 6.27377e-15 0)
)
;

boundaryField
{
    movingWall
    {
        type            fixedValue;
        value           uniform (1 0 0);
    }
    fixedWalls
    {
        type            fixedValue;
        value           uniform (0 0 0);
    }
    frontAndBack
    {
        type            empty;
    }
}


// ************************************************************************* //
