/*--------------------------------*- C++ -*----------------------------------*\
  =========                 |
  \\      /  F ield         | OpenFOAM: The Open Source CFD Toolbox
   \\    /   O peration     | Website:  https://openfoam.org
    \\  /    A nd           | Version:  dev
     \\/     M anipulation  |
\*---------------------------------------------------------------------------*/
FoamFile
{
    format      ascii;
    class       volScalarField;
    location    "90";
    object      h;
}
// * * * * * * * * * * * * * * * * * * * * * * * * * * * * * * * * * * * * * //

dimensions      [0 1 0 0 0 0 0];

internalField   nonuniform List<scalar> 
10000
(
-0.000850146
-0.00274849
-0.00434496
-0.00477452
-0.00432181
-0.00386921
-0.00304157
-0.000796137
0.00243824
0.0056188
0.00856013
0.0113362
0.0129422
0.0125673
0.0109321
0.00925678
0.007696
0.00559112
0.00278097
-0.000305639
-0.00300846
-0.00507882
-0.00632571
-0.00653906
-0.00571252
-0.00425267
-0.00273728
-0.00171784
-0.00140436
-0.00164937
-0.0023085
-0.00298382
-0.00330559
-0.00318818
-0.00307167
-0.00300206
-0.00242551
-0.0010352
0.000902349
0.00258333
0.00277115
0.00161952
0.000580917
0.000713345
0.00229746
0.00424641
0.00456452
0.00271517
-0.000267635
-0.00266702
-0.00266699
-0.000267554
0.00271527
0.0045646
0.00424644
0.00229744
0.0007133
0.000580872
0.0016195
0.00277115
0.00258334
0.000902372
-0.00103516
-0.00242545
-0.00300199
-0.00307161
-0.00318815
-0.00330561
-0.00298388
-0.00230857
-0.00164941
-0.00140431
-0.00171769
-0.00273711
-0.00425264
-0.00571277
-0.00653959
-0.00632635
-0.00507931
-0.00300862
-0.000305473
0.00278128
0.00559135
0.00769604
0.00925675
0.0109323
0.0125678
0.012943
0.0113371
0.00856066
0.00561884
0.00243784
-0.000796771
-0.00304218
-0.00386964
-0.00432217
-0.00477494
-0.00434543
-0.00274886
-0.000850284
-0.00274849
-0.00885444
-0.0141445
-0.015966
-0.0148919
-0.0132992
-0.0101681
-0.00280603
0.00719446
0.0166409
0.0251225
0.0331546
0.038072
0.0375026
0.0332453
0.0285228
0.0236909
0.0170747
0.00861211
-0.000142578
-0.00731529
-0.0125448
-0.0157221
-0.0164701
-0.014671
-0.0111929
-0.0074183
-0.0048384
-0.00413944
-0.00503863
-0.00718415
-0.00939825
-0.0105369
-0.0103425
-0.0101196
-0.0100393
-0.00849613
-0.00454304
0.00108157
0.00600436
0.00659042
0.00321439
5.35375e-05
0.000243919
0.00467529
0.0102417
0.0111808
0.00589892
-0.00265145
-0.00952859
-0.00952853
-0.00265131
0.00589908
0.0111809
0.0102417
0.00467524
0.000243864
5.35141e-05
0.00321439
0.00659043
0.00600433
0.00108151
-0.00454307
-0.00849607
-0.0100392
-0.0101194
-0.0103424
-0.0105369
-0.00939832
-0.00718422
-0.00503861
-0.00413926
-0.00483809
-0.00741803
-0.011193
-0.0146717
-0.0164714
-0.0157236
-0.012546
-0.00731577
-0.000142293
0.00861285
0.0170755
0.0236914
0.0285232
0.0332461
0.0375043
0.0380743
0.0331567
0.0251238
0.016641
0.00719347
-0.00280776
-0.01017
-0.0133007
-0.0148933
-0.0159675
-0.0141459
-0.00885549
-0.00274886
-0.00434496
-0.0141445
-0.0230578
-0.0267177
-0.0254471
-0.0224873
-0.0163693
-0.00363393
0.0125384
0.0269392
0.0393831
0.0514672
0.0596382
0.0600782
0.0547813
0.0479267
0.039795
0.0283051
0.0142796
0.000867704
-0.00909372
-0.0158201
-0.0200862
-0.0217496
-0.0203268
-0.0164481
-0.0116534
-0.00810963
-0.00714364
-0.00871015
-0.012417
-0.0163517
-0.0185261
-0.0184947
-0.0183123
-0.018309
-0.015983
-0.0097181
-0.000621648
0.00740946
0.00854595
0.00323485
-0.00198806
-0.00196696
0.00482101
0.0135033
0.0150384
0.00678062
-0.00669396
-0.0175164
-0.0175163
-0.00669382
0.00678074
0.0150384
0.0135032
0.00482091
-0.00196698
-0.00198795
0.00323501
0.00854603
0.00740933
-0.000621936
-0.00971836
-0.0159831
-0.0183089
-0.0183122
-0.0184946
-0.0185261
-0.0163516
-0.0124168
-0.00870986
-0.00714336
-0.00810946
-0.0116535
-0.0164487
-0.0203279
-0.0217511
-0.0200879
-0.0158215
-0.00909456
0.000867596
0.0142802
0.0283063
0.0397965
0.0479283
0.0547832
0.0600808
0.059641
0.0514697
0.0393847
0.0269395
0.0125373
-0.00363621
-0.0163722
-0.0224903
-0.0254499
-0.0267203
-0.02306
-0.0141459
-0.00434543
-0.00477452
-0.015966
-0.0267177
-0.0313712
-0.029728
-0.0253434
-0.0165188
0.000230299
0.0202514
0.0369512
0.0508626
0.0650228
0.0756369
0.0776357
0.0724426
0.0642893
0.0531881
0.037083
0.0179709
0.000653938
-0.0113214
-0.0189412
-0.0240625
-0.0268694
-0.0263782
-0.0226655
-0.0171372
-0.0124716
-0.0106716
-0.0121655
-0.0166748
-0.0217864
-0.0247944
-0.025067
-0.0250156
-0.0248934
-0.0214512
-0.0125616
0.000133492
0.0111291
0.0128403
0.00589225
-0.00109196
-0.00100183
0.0081003
0.0195643
0.0215259
0.0103473
-0.00787539
-0.0223788
-0.0223787
-0.00787514
0.0103476
0.021526
0.0195642
0.00810008
-0.00100194
-0.00109184
0.00589254
0.0128405
0.0111291
0.000133181
-0.012562
-0.0214515
-0.0248934
-0.0250155
-0.0250669
-0.0247942
-0.0217861
-0.0166743
-0.012165
-0.0106714
-0.0124718
-0.0171379
-0.0226665
-0.0263794
-0.0268707
-0.0240639
-0.0189426
-0.0113228
0.000652938
0.0179709
0.0370842
0.0531905
0.0642924
0.0724459
0.0776389
0.0756398
0.0650251
0.0508641
0.0369519
0.0202509
0.000228206
-0.0165223
-0.0253474
-0.029732
-0.0313748
-0.0267203
-0.0159675
-0.00477494
-0.00432181
-0.0148919
-0.0254471
-0.029728
-0.0272367
-0.0216348
-0.0111945
0.0073184
0.0286028
0.0456408
0.0597188
0.0747962
0.0869561
0.0902441
0.0854238
0.0766235
0.0637256
0.044739
0.0222216
0.00193882
-0.0121355
-0.0212801
-0.027826
-0.0319996
-0.0324208
-0.0288811
-0.0228454
-0.0174176
-0.0150351
-0.0164511
-0.0214258
-0.0273068
-0.0309629
-0.0316973
-0.031858
-0.0313496
-0.0263795
-0.0145566
0.00171531
0.0152779
0.0174144
0.00915583
0.000904557
0.0015462
0.0130702
0.0269769
0.0291039
0.0149431
-0.00794356
-0.0258951
-0.025895
-0.00794315
0.0149436
0.0291042
0.0269768
0.01307
0.0015459
0.000904515
0.00915607
0.0174147
0.015278
0.00171514
-0.014557
-0.0263798
-0.0313496
-0.0318578
-0.031697
-0.0309625
-0.0273063
-0.0214253
-0.0164507
-0.0150351
-0.0174181
-0.0228464
-0.0288823
-0.0324221
-0.0320009
-0.0278274
-0.0212816
-0.0121373
0.00193724
0.0222211
0.0447401
0.0637284
0.0766274
0.085428
0.090248
0.0869591
0.0747983
0.0597201
0.0456416
0.0286027
0.00731673
-0.0111979
-0.0216391
-0.0272411
-0.029732
-0.0254499
-0.0148933
-0.00432217
-0.00386921
-0.0132992
-0.0224873
-0.0253434
-0.0216348
-0.0151844
-0.00437534
0.0138822
0.0348025
0.0518367
0.0664613
0.0823218
0.0951821
0.0988503
0.0939818
0.0850179
0.0720741
0.0530267
0.0298969
0.00832982
-0.00761182
-0.0188376
-0.0273472
-0.0330935
-0.0345163
-0.0315274
-0.0259262
-0.0211402
-0.019678
-0.0222683
-0.0284123
-0.0352809
-0.0395753
-0.0407853
-0.0410511
-0.0399396
-0.0334498
-0.0190531
0.000171985
0.0156669
0.0182231
0.00925238
0.000293721
0.00164477
0.0151235
0.0306742
0.0326866
0.0159751
-0.0107666
-0.0314258
-0.0314257
-0.0107662
0.0159756
0.0326869
0.0306743
0.0151233
0.00164447
0.000293579
0.00925249
0.0182233
0.015667
0.000171777
-0.0190534
-0.03345
-0.0399395
-0.0410508
-0.0407849
-0.0395749
-0.0352805
-0.028412
-0.0222682
-0.0196782
-0.0211409
-0.0259272
-0.0315286
-0.0345178
-0.0330951
-0.0273487
-0.0188392
-0.00761335
0.00832866
0.0298967
0.0530279
0.0720769
0.0850217
0.0939861
0.0988545
0.0951854
0.082324
0.0664625
0.0518372
0.0348022
0.0138805
-0.00437848
-0.0151885
-0.0216391
-0.0253474
-0.0224903
-0.0133007
-0.00386964
-0.00304157
-0.0101681
-0.0163693
-0.0165188
-0.0111945
-0.00437534
0.00542742
0.0213652
0.0401702
0.0564333
0.0711805
0.0867225
0.0986312
0.101348
0.0959404
0.0873022
0.0759105
0.0593276
0.038244
0.0173707
0.000572962
-0.0123304
-0.0226196
-0.029876
-0.0324499
-0.0304373
-0.0259875
-0.0227533
-0.0231665
-0.027759
-0.0355305
-0.0434207
-0.0481249
-0.049549
-0.0496224
-0.0476999
-0.0398749
-0.0234933
-0.0020553
0.0148654
0.0181019
0.0092416
0.000153983
0.00207826
0.0166076
0.0327003
0.0342835
0.0157396
-0.0135868
-0.0358954
-0.0358954
-0.0135866
0.0157399
0.0342838
0.0327004
0.0166076
0.00207811
0.000153939
0.0092417
0.018102
0.0148653
-0.00205572
-0.0234938
-0.0398751
-0.0476997
-0.0496219
-0.0495485
-0.0481246
-0.0434205
-0.0355303
-0.027759
-0.0231668
-0.0227538
-0.0259883
-0.0304386
-0.0324516
-0.0298779
-0.0226214
-0.0123319
0.000572075
0.0173705
0.0382447
0.0593292
0.0759128
0.0873051
0.095944
0.101352
0.0986349
0.0867252
0.0711818
0.0564334
0.0401692
0.0213632
0.00542471
-0.00437848
-0.0111979
-0.0165223
-0.0163722
-0.01017
-0.00304217
-0.000796137
-0.00280603
-0.00363393
0.000230299
0.0073184
0.0138822
0.0213652
0.0329404
0.0472659
0.0604994
0.0730569
0.0858385
0.0949558
0.0962147
0.090892
0.083597
0.0748669
0.0620365
0.0444512
0.0256757
0.00918541
-0.00456196
-0.0162688
-0.0252222
-0.0295203
-0.0290414
-0.0259866
-0.0241585
-0.0260831
-0.0323031
-0.0413991
-0.0501066
-0.055158
-0.0567965
-0.0565058
-0.0534139
-0.0439951
-0.0256787
-0.00232852
0.0157843
0.0199969
0.0120196
0.00349467
0.00614754
0.0212314
0.0371137
0.0379773
0.0180134
-0.0130844
-0.0363624
-0.0363623
-0.0130842
0.0180137
0.0379776
0.0371138
0.0212313
0.00614739
0.00349467
0.0120198
0.0199971
0.0157842
-0.00232896
-0.0256792
-0.0439953
-0.0534136
-0.0565052
-0.0567959
-0.0551577
-0.0501066
-0.0413991
-0.0323032
-0.0260833
-0.024159
-0.0259874
-0.0290428
-0.0295221
-0.0252243
-0.0162707
-0.00456318
0.00918509
0.0256763
0.0444525
0.0620382
0.0748687
0.083599
0.0908944
0.0962179
0.0949593
0.0858413
0.0730582
0.0604992
0.0472646
0.0329385
0.0213632
0.0138805
0.00731673
0.000228207
-0.00363621
-0.00280776
-0.000796766
0.00243824
0.00719446
0.0125384
0.0202514
0.0286028
0.0348025
0.0401702
0.0472659
0.0561884
0.0646903
0.0728591
0.0809046
0.0864675
0.0870263
0.0832399
0.0782287
0.0722734
0.0629984
0.0490359
0.0330042
0.0178426
0.00428432
-0.00823563
-0.0189789
-0.0257101
-0.0276509
-0.0266288
-0.0263481
-0.0294686
-0.0367887
-0.0468286
-0.0564142
-0.0624226
-0.0650661
-0.0648089
-0.0602798
-0.0486141
-0.0279052
-0.00270313
0.0162596
0.0213432
0.0146376
0.00731248
0.011101
0.0266616
0.041926
0.0417702
0.0204966
-0.0119362
-0.0357945
-0.0357945
-0.011936
0.020497
0.0417706
0.0419262
0.0266615
0.0111007
0.00731225
0.0146377
0.0213435
0.0162598
-0.00270329
-0.0279057
-0.0486144
-0.0602796
-0.0648084
-0.0650655
-0.0624222
-0.0564141
-0.0468287
-0.0367889
-0.029469
-0.0263488
-0.0266299
-0.0276524
-0.0257119
-0.0189807
-0.008237
0.0042836
0.0178426
0.033005
0.0490373
0.063
0.0722749
0.0782301
0.0832414
0.0870284
0.08647
0.0809068
0.0728602
0.0646903
0.0561874
0.0472646
0.0401692
0.0348022
0.0286027
0.0202509
0.0125373
0.00719347
0.00243785
0.0056188
0.0166409
0.0269392
0.0369512
0.0456408
0.0518367
0.0564333
0.0604994
0.0646903
0.0681869
0.0711717
0.0739836
0.0764213
0.0774919
0.0764164
0.0740194
0.0703939
0.0641235
0.0537733
0.0410986
0.0283315
0.0161845
0.00387219
-0.008169
-0.0175754
-0.0228224
-0.0250909
-0.027587
-0.0328421
-0.041848
-0.053289
-0.0643533
-0.0721893
-0.0766294
-0.0767632
-0.0706632
-0.0564319
-0.0333322
-0.0066906
0.0127465
0.0187464
0.013828
0.00828752
0.0132464
0.0287026
0.0426548
0.0412676
0.0192678
-0.0134371
-0.0370895
-0.0370895
-0.0134369
0.0192682
0.0412681
0.0426552
0.0287026
0.013246
0.00828704
0.0138278
0.0187465
0.0127468
-0.00669053
-0.0333324
-0.0564321
-0.0706632
-0.0767629
-0.0766289
-0.0721889
-0.0643532
-0.0532891
-0.0418484
-0.0328428
-0.0275881
-0.0250924
-0.0228241
-0.0175768
-0.00817001
0.00387173
0.0161846
0.0283319
0.0410994
0.0537745
0.064125
0.0703955
0.0740208
0.0764174
0.0774927
0.0764221
0.0739844
0.0711723
0.0681871
0.0646903
0.0604992
0.0564334
0.0518372
0.0456416
0.0369519
0.0269395
0.016641
0.00561884
0.00856013
0.0251225
0.0393831
0.0508626
0.0597188
0.0664613
0.0711805
0.0730569
0.0728591
0.0711717
0.068553
0.065844
0.0650328
0.0663919
0.0675758
0.0671807
0.0654739
0.0622933
0.0561923
0.0477878
0.038485
0.0290141
0.0183873
0.00652965
-0.00450885
-0.0127671
-0.0188228
-0.0250901
-0.0335663
-0.0450813
-0.0583942
-0.071117
-0.0808054
-0.0868602
-0.087167
-0.0795051
-0.0630958
-0.0384372
-0.0112117
0.00852365
0.0160318
0.0138271
0.0106239
0.016289
0.0304167
0.0419614
0.0391327
0.0173926
-0.0139448
-0.0362186
-0.0362187
-0.0139449
0.0173928
0.0391332
0.041962
0.030417
0.0162889
0.0106235
0.0138267
0.0160316
0.00852369
-0.0112116
-0.0384373
-0.0630959
-0.0795051
-0.0871667
-0.0868598
-0.0808051
-0.071117
-0.0583945
-0.0450819
-0.0335673
-0.0250915
-0.0188244
-0.0127686
-0.00450988
0.00652934
0.0183877
0.0290149
0.0384859
0.0477887
0.0561933
0.0622945
0.0654752
0.0671819
0.0675764
0.0663917
0.065032
0.0658431
0.0685527
0.0711723
0.0728602
0.0730582
0.0711818
0.0664625
0.0597201
0.0508641
0.0393847
0.0251238
0.00856066
0.0113362
0.0331546
0.0514672
0.0650228
0.0747962
0.0823218
0.0867225
0.0858385
0.0809046
0.0739836
0.065844
0.0575263
0.0527321
0.0528916
0.0547466
0.0554259
0.055666
0.0562509
0.0552297
0.0516402
0.0460949
0.0396891
0.0315937
0.0212499
0.0100257
-0.000129377
-0.00947595
-0.019616
-0.031777
-0.0462474
-0.0615804
-0.0757075
-0.0867089
-0.0936741
-0.0937257
-0.0846675
-0.0667474
-0.0414855
-0.0144102
0.00568939
0.0154374
0.0168982
0.0166924
0.022928
0.0350031
0.0434793
0.0390489
0.01812
-0.0108978
-0.0311383
-0.0311384
-0.010898
0.01812
0.0390492
0.0434799
0.0350035
0.022928
0.0166921
0.0168978
0.0154372
0.0056893
-0.0144102
-0.0414856
-0.0667475
-0.0846674
-0.0937253
-0.0936736
-0.0867086
-0.0757076
-0.0615809
-0.0462482
-0.0317782
-0.0196174
-0.00947733
-0.000130512
0.0100251
0.02125
0.0315945
0.0396904
0.0460963
0.0516414
0.0552307
0.0562517
0.0556667
0.0554262
0.0547464
0.0528904
0.0527301
0.0575243
0.0658431
0.0739844
0.0809068
0.0858413
0.0867252
0.082324
0.0747983
0.0650251
0.0514697
0.0331567
0.0113371
0.0129422
0.038072
0.0596382
0.0756369
0.0869561
0.0951821
0.0986312
0.0949558
0.0864675
0.0764213
0.0650328
0.0527321
0.0442036
0.0420421
0.0430408
0.0438062
0.045661
0.0498454
0.0535499
0.0541193
0.0515875
0.0477126
0.0420947
0.033737
0.0231108
0.0118443
-0.000222192
-0.01395
-0.0297929
-0.0473866
-0.0649915
-0.0808013
-0.0933527
-0.101239
-0.100967
-0.0905357
-0.0712275
-0.0456932
-0.0191694
0.00122903
0.0135007
0.0191989
0.0227312
0.0300559
0.0402756
0.0456973
0.0395452
0.0193625
-0.00727864
-0.0254613
-0.0254614
-0.0072789
0.0193624
0.0395455
0.0456978
0.040276
0.030056
0.0227309
0.0191986
0.0135005
0.00122901
-0.0191694
-0.0456934
-0.0712276
-0.0905356
-0.100966
-0.101238
-0.0933525
-0.0808016
-0.0649924
-0.0473879
-0.0297942
-0.0139511
-0.000223089
0.0118437
0.0231107
0.0337374
0.0420956
0.0477139
0.051589
0.0541207
0.0535509
0.0498458
0.0456607
0.0438054
0.0430394
0.0420402
0.0442013
0.0527301
0.065032
0.0764221
0.08647
0.0949593
0.0986349
0.0951854
0.0869591
0.0756399
0.059641
0.0380743
0.012943
0.0125673
0.0375026
0.0600782
0.0776357
0.0902441
0.0988503
0.101348
0.0962147
0.0870263
0.0774919
0.0663919
0.0528916
0.0420421
0.0375034
0.0367986
0.0366795
0.039059
0.04545
0.0524086
0.0559963
0.0559171
0.0545219
0.0517285
0.0459603
0.0366219
0.02486
0.0105807
-0.00637788
-0.0257934
-0.046777
-0.0674081
-0.0860846
-0.101459
-0.111126
-0.110892
-0.0991258
-0.0783603
-0.0526929
-0.0271024
-0.00666955
0.00809273
0.0182477
0.0258965
0.0345227
0.0428561
0.045135
0.0372244
0.0179704
-0.00592759
-0.0218001
-0.0218003
-0.00592804
0.0179702
0.0372246
0.0451356
0.0428567
0.0345229
0.0258961
0.018247
0.0080923
-0.00666962
-0.0271023
-0.0526927
-0.0783604
-0.0991259
-0.110892
-0.111126
-0.101459
-0.0860851
-0.0674093
-0.0467785
-0.0257948
-0.00637884
0.0105802
0.02486
0.0366224
0.0459611
0.0517296
0.0545232
0.0559185
0.0559977
0.0524096
0.04545
0.039058
0.0366776
0.0367964
0.0375012
0.0420402
0.0528904
0.0663917
0.0774927
0.0870284
0.0962179
0.101352
0.0988545
0.090248
0.0776389
0.0600808
0.0375043
0.0125678
0.0109321
0.0332453
0.0547813
0.0724426
0.0854238
0.0939818
0.0959404
0.090892
0.0832399
0.0764164
0.0675758
0.0547466
0.0430408
0.0367986
0.0342923
0.0326386
0.0342969
0.0411951
0.0499248
0.0558874
0.0585306
0.06038
0.0613381
0.0590966
0.0519964
0.0406649
0.025109
0.00578505
-0.0166664
-0.0411106
-0.065547
-0.0883241
-0.107663
-0.119672
-0.119583
-0.106551
-0.0846137
-0.0592997
-0.0350487
-0.0145486
0.00301323
0.0178447
0.0294732
0.0387836
0.0444277
0.0431493
0.0337572
0.0163791
-0.00359205
-0.0163836
-0.0163839
-0.00359264
0.0163787
0.0337574
0.0431501
0.0444285
0.0387839
0.0294728
0.0178437
0.00301237
-0.014549
-0.0350484
-0.0592992
-0.0846134
-0.106551
-0.119583
-0.119672
-0.107663
-0.0883248
-0.0655481
-0.041112
-0.0166677
0.00578427
0.0251089
0.0406654
0.0519974
0.059098
0.0613396
0.0603814
0.0585318
0.0558884
0.0499253
0.0411947
0.0342953
0.0326361
0.0342897
0.0367964
0.0430394
0.0547464
0.0675764
0.0764174
0.0832414
0.0908944
0.095944
0.0939861
0.085428
0.0724459
0.0547832
0.0332461
0.0109323
0.00925678
0.0285228
0.0479267
0.0642893
0.0766235
0.0850179
0.0873022
0.083597
0.0782287
0.0740194
0.0671807
0.0554259
0.0438062
0.0366795
0.0326386
0.0291318
0.0291296
0.0352131
0.0446378
0.0526123
0.0582298
0.0637464
0.0689161
0.0708403
0.0669501
0.0572787
0.0418398
0.0214798
-0.00302727
-0.0304799
-0.0587729
-0.0859037
-0.109302
-0.123547
-0.12367
-0.109887
-0.0875633
-0.0631821
-0.0403238
-0.0193056
0.00150411
0.0209826
0.0360342
0.0452478
0.047679
0.0429268
0.0326628
0.0180686
0.00292336
-0.0062554
-0.00625561
0.00292291
0.0180683
0.032663
0.0429275
0.0476798
0.0452481
0.0360339
0.0209817
0.00150311
-0.0193061
-0.0403236
-0.0631815
-0.0875627
-0.109887
-0.12367
-0.123548
-0.109302
-0.0859045
-0.058774
-0.0304811
-0.00302813
0.0214795
0.04184
0.0572796
0.0669515
0.0708421
0.0689179
0.0637477
0.0582305
0.0526126
0.0446375
0.0352119
0.0291276
0.0291294
0.0326361
0.0366776
0.0438054
0.0554263
0.0671819
0.0740208
0.0782301
0.083599
0.0873052
0.0850217
0.0766274
0.0642924
0.0479283
0.0285232
0.00925675
0.007696
0.0236909
0.039795
0.0531881
0.0637256
0.0720741
0.0759105
0.0748669
0.0722734
0.0703939
0.0654739
0.055666
0.045661
0.039059
0.0342969
0.0291296
0.0270171
0.0313001
0.0402295
0.0490853
0.0565456
0.064466
0.0727068
0.0781891
0.0776392
0.0703277
0.0560758
0.0358612
0.010368
-0.0192648
-0.0508239
-0.081817
-0.108836
-0.125178
-0.125946
-0.112342
-0.0905474
-0.0674199
-0.0456106
-0.0234746
0.000871571
0.0248099
0.0429657
0.0520616
0.0517267
0.0442538
0.0337499
0.022206
0.0118195
0.00607022
0.00607007
0.0118192
0.0222058
0.03375
0.0442543
0.0517273
0.0520618
0.0429654
0.0248092
0.000870751
-0.0234751
-0.0456104
-0.0674195
-0.0905469
-0.112342
-0.125946
-0.125179
-0.108836
-0.081818
-0.050825
-0.0192657
0.0103676
0.0358615
0.0560766
0.0703289
0.0776407
0.0781907
0.0727082
0.0644669
0.0565458
0.0490848
0.0402284
0.0312984
0.0270151
0.0291276
0.0342953
0.039058
0.0456607
0.0556667
0.0654752
0.0703955
0.072275
0.0748687
0.0759128
0.0720769
0.0637284
0.0531905
0.0397965
0.0236913
0.00769604
0.00559112
0.0170747
0.0283051
0.037083
0.044739
0.0530267
0.0593276
0.0620365
0.0629984
0.0641235
0.0622933
0.0562509
0.0498454
0.04545
0.0411951
0.0352131
0.0313001
0.0333641
0.0406933
0.048873
0.0563626
0.0648137
0.0745434
0.0825838
0.08502
0.0802017
0.0677041
0.0485598
0.0232061
-0.00750747
-0.0414816
-0.0758225
-0.106352
-0.125256
-0.127703
-0.115587
-0.095458
-0.0741771
-0.0535029
-0.0301274
-0.00216841
0.0262713
0.04773
0.0571512
0.054627
0.0448914
0.0342194
0.0254552
0.0194407
0.0168217
0.0168215
0.0194402
0.0254547
0.0342193
0.0448917
0.0546275
0.0571516
0.0477298
0.0262707
-0.00216911
-0.0301277
-0.0535028
-0.0741767
-0.0954578
-0.115587
-0.127704
-0.125257
-0.106353
-0.0758234
-0.0414824
-0.00750795
0.0232062
0.0485606
0.0677054
0.0802031
0.0850213
0.0825848
0.0745442
0.064814
0.0563623
0.048872
0.0406918
0.0333623
0.0312984
0.0352119
0.0411947
0.04545
0.0498458
0.0562517
0.0622945
0.064125
0.063
0.0620382
0.0593292
0.0530279
0.0447401
0.0370842
0.0283062
0.0170755
0.00559134
0.00278097
0.00861211
0.0142796
0.0179709
0.0222216
0.0298969
0.038244
0.0444512
0.0490359
0.0537733
0.0561923
0.0552297
0.0535499
0.0524086
0.0499248
0.0446378
0.0402295
0.0406933
0.0462122
0.0529715
0.0595645
0.06762
0.0779639
0.0878081
0.0926801
0.0901616
0.0797968
0.0626282
0.038573
0.00782406
-0.0278766
-0.0652228
-0.0991655
-0.120947
-0.125925
-0.116631
-0.0996927
-0.0815073
-0.062633
-0.0381578
-0.00642486
0.0267841
0.0518206
0.0618033
0.0572862
0.045373
0.0343741
0.0280587
0.0260663
0.0263202
0.0263199
0.0260656
0.028058
0.0343737
0.0453732
0.0572867
0.0618038
0.0518206
0.0267836
-0.00642558
-0.0381582
-0.062633
-0.081507
-0.0996926
-0.116631
-0.125926
-0.120949
-0.0991665
-0.0652234
-0.0278769
0.00782413
0.0385735
0.0626292
0.0797981
0.090163
0.0926811
0.0878087
0.077964
0.0676197
0.0595639
0.0529705
0.0462109
0.0406918
0.0402284
0.0446375
0.0499253
0.0524096
0.0535509
0.0552307
0.0561933
0.0537745
0.0490373
0.0444525
0.0382447
0.0298967
0.0222211
0.0179709
0.0142802
0.00861285
0.00278127
-0.000305639
-0.000142578
0.000867704
0.000653938
0.00193882
0.00832982
0.0173707
0.0256757
0.0330042
0.0410986
0.0477878
0.0516402
0.0541193
0.0559963
0.0558874
0.0526123
0.0490853
0.048873
0.0529715
0.0585476
0.0645559
0.0724754
0.0833336
0.0944585
0.101126
0.100588
0.0926361
0.0782248
0.0564968
0.0267144
-0.00979139
-0.0492054
-0.0856017
-0.109693
-0.117356
-0.111751
-0.0991979
-0.0850416
-0.0683525
-0.0428993
-0.00765505
0.029847
0.0580658
0.0686432
0.0626594
0.0492429
0.0382485
0.0341965
0.0356942
0.0383369
0.0383368
0.0356938
0.0341959
0.0382481
0.0492428
0.0626597
0.0686436
0.058066
0.0298467
-0.00765572
-0.0428999
-0.0683528
-0.0850415
-0.0991979
-0.111752
-0.117356
-0.109694
-0.0856026
-0.0492057
-0.00979117
0.026715
0.0564977
0.0782259
0.0926371
0.100589
0.101127
0.0944587
0.0833334
0.0724747
0.064555
0.0585466
0.0529705
0.048872
0.0490848
0.0526126
0.0558884
0.0559978
0.0541207
0.0516414
0.0477887
0.0410994
0.033005
0.0256763
0.0173705
0.00832866
0.00193723
0.000652935
0.000867591
-0.000142298
-0.000305479
-0.00300846
-0.00731529
-0.00909372
-0.0113214
-0.0121355
-0.00761182
0.000572962
0.00918541
0.0178426
0.0283315
0.038485
0.0460949
0.0515875
0.0559171
0.0585306
0.0582298
0.0565456
0.0563626
0.0595645
0.0645559
0.0706092
0.0787355
0.0898667
0.101549
0.109207
0.110051
0.10418
0.0923507
0.0729637
0.0445044
0.00809227
-0.031966
-0.069172
-0.0944171
-0.104468
-0.102866
-0.0950377
-0.0848839
-0.0701906
-0.0441102
-0.00655822
0.0336404
0.0639046
0.0750561
0.0686983
0.0552888
0.0453683
0.043846
0.0485275
0.0531922
0.0531922
0.0485274
0.0438458
0.0453681
0.0552887
0.0686983
0.0750563
0.0639047
0.0336402
-0.00655884
-0.044111
-0.0701912
-0.0848841
-0.0950377
-0.102866
-0.104469
-0.0944178
-0.0691725
-0.0319661
0.00809276
0.0445053
0.0729647
0.0923515
0.104181
0.110051
0.109207
0.101549
0.0898664
0.0787348
0.0706083
0.064555
0.0595639
0.0563623
0.0565458
0.0582305
0.0585318
0.0559186
0.051589
0.0460963
0.0384859
0.0283319
0.0178426
0.00918509
0.000572076
-0.00761335
-0.0121373
-0.0113228
-0.00909457
-0.00731578
-0.00300863
-0.00507882
-0.0125448
-0.0158201
-0.0189412
-0.0212801
-0.0188376
-0.0123304
-0.00456196
0.00428432
0.0161845
0.0290141
0.0396891
0.0477126
0.0545219
0.06038
0.0637464
0.064466
0.0648137
0.06762
0.0724754
0.0787355
0.0868083
0.097596
0.109078
0.116978
0.118397
0.113639
0.103309
0.0854264
0.0580747
0.0223643
-0.0170774
-0.0536088
-0.0789564
-0.0909264
-0.0930603
-0.0895767
-0.0829832
-0.0702425
-0.0444437
-0.00636194
0.034595
0.0656282
0.0772402
0.0714165
0.0593719
0.051792
0.0536863
0.0620179
0.0688765
0.0688765
0.062018
0.0536863
0.051792
0.0593719
0.0714165
0.0772402
0.0656281
0.0345947
-0.00636266
-0.0444446
-0.0702433
-0.0829836
-0.0895768
-0.0930603
-0.0909265
-0.0789567
-0.0536089
-0.0170772
0.0223648
0.0580754
0.0854271
0.103309
0.113639
0.118397
0.116978
0.109078
0.0975957
0.0868078
0.0787348
0.0724747
0.0676197
0.064814
0.0644669
0.0637477
0.0603814
0.0545233
0.0477139
0.0396904
0.0290149
0.0161846
0.0042836
-0.00456319
-0.0123319
-0.0188392
-0.0212816
-0.0189426
-0.0158215
-0.012546
-0.00507931
-0.00632571
-0.0157221
-0.0200862
-0.0240625
-0.027826
-0.0273472
-0.0226196
-0.0162688
-0.00823563
0.00387219
0.0183873
0.0315937
0.0420947
0.0517285
0.0613381
0.0689161
0.0727068
0.0745434
0.0779639
0.0833336
0.0898667
0.097596
0.107754
0.118824
0.126706
0.128176
0.123681
0.113789
0.0964702
0.0697369
0.0348649
-0.00334586
-0.0384607
-0.0634698
-0.0772069
-0.0829111
-0.083538
-0.0803942
-0.0699867
-0.0456019
-0.00861478
0.0315397
0.0623122
0.0741595
0.0693021
0.0593727
0.0549303
0.0608751
0.0732475
0.0824966
0.0824967
0.0732477
0.0608753
0.0549303
0.0593726
0.0693019
0.0741592
0.0623119
0.0315392
-0.00861552
-0.0456027
-0.0699874
-0.0803945
-0.083538
-0.082911
-0.0772069
-0.0634698
-0.0384607
-0.00334568
0.0348653
0.0697373
0.0964706
0.113789
0.123681
0.128176
0.126706
0.118824
0.107754
0.0975957
0.0898664
0.0833334
0.077964
0.0745442
0.0727082
0.0689179
0.0613396
0.0517296
0.0420956
0.0315945
0.0183877
0.00387173
-0.008237
-0.0162707
-0.0226214
-0.0273487
-0.0278274
-0.024064
-0.0200879
-0.0157236
-0.00632635
-0.00653906
-0.0164701
-0.0217496
-0.0268694
-0.0319996
-0.0330935
-0.029876
-0.0252222
-0.0189789
-0.008169
0.00652965
0.0212499
0.033737
0.0459603
0.0590966
0.0708403
0.0781891
0.0825838
0.0878081
0.0944585
0.101549
0.109078
0.118824
0.129692
0.137707
0.139349
0.135203
0.125687
0.108716
0.0824597
0.0485121
0.0117653
-0.0217827
-0.0465958
-0.0624258
-0.0719453
-0.0768016
-0.0771321
-0.0691784
-0.0466802
-0.0115716
0.0269363
0.0568786
0.0689603
0.0654898
0.058056
0.0567009
0.0660726
0.0815972
0.092638
0.0926382
0.0815975
0.0660727
0.0567007
0.0580554
0.0654892
0.0689597
0.0568784
0.026936
-0.011572
-0.0466807
-0.0691788
-0.0771323
-0.0768015
-0.0719451
-0.0624258
-0.0465959
-0.0217828
0.0117653
0.0485123
0.08246
0.108717
0.125687
0.135204
0.139349
0.137707
0.129692
0.118824
0.109078
0.101549
0.0944587
0.0878087
0.0825848
0.0781907
0.0708421
0.059098
0.0459611
0.0337374
0.02125
0.00652934
-0.00817002
-0.0189807
-0.0252243
-0.0298779
-0.0330951
-0.0320009
-0.0268707
-0.0217511
-0.0164714
-0.0065396
-0.00571252
-0.014671
-0.0203268
-0.0263782
-0.0324208
-0.0345163
-0.0324499
-0.0295203
-0.0257101
-0.0175754
-0.00450885
0.0100257
0.0231108
0.0366219
0.0519964
0.0669501
0.0776392
0.08502
0.0926801
0.101126
0.109207
0.116978
0.126706
0.137707
0.146323
0.148904
0.145913
0.137251
0.120782
0.0951949
0.0625174
0.0275399
-0.00451981
-0.0297641
-0.04858
-0.0625935
-0.0718416
-0.0752498
-0.0691642
-0.0482812
-0.0151539
0.0215139
0.0507168
0.0635448
0.0619835
0.0569594
0.0577369
0.0688749
0.0857813
0.0974992
0.0974993
0.0857815
0.0688748
0.0577364
0.0569584
0.0619824
0.063544
0.0507165
0.0215141
-0.0151537
-0.0482812
-0.0691644
-0.07525
-0.0718417
-0.0625935
-0.0485801
-0.0297643
-0.00452004
0.0275398
0.0625174
0.0951952
0.120783
0.137251
0.145914
0.148905
0.146324
0.137707
0.126706
0.116978
0.109207
0.101127
0.0926811
0.0850213
0.0776407
0.0669515
0.0519974
0.0366224
0.0231107
0.0100251
-0.00450988
-0.0175768
-0.0257119
-0.0295221
-0.0324516
-0.0345178
-0.0324221
-0.0263794
-0.0203279
-0.0146717
-0.00571278
-0.00425267
-0.0111929
-0.0164481
-0.0226655
-0.0288811
-0.0315274
-0.0304373
-0.0290414
-0.0276509
-0.0228224
-0.0127671
-0.000129377
0.0118443
0.02486
0.0406649
0.0572787
0.0703277
0.0802017
0.0901616
0.100588
0.110051
0.118397
0.128176
0.139349
0.148904
0.153085
0.1518
0.144205
0.128325
0.103685
0.0726863
0.0397245
0.00897182
-0.0172452
-0.0395437
-0.0581243
-0.0713248
-0.0771322
-0.072454
-0.0531756
-0.0221435
0.0128801
0.0419657
0.0562612
0.056896
0.0538056
0.0556155
0.067157
0.0842519
0.0959761
0.0959761
0.0842518
0.0671567
0.0556147
0.0538045
0.0568948
0.0562603
0.0419655
0.0128804
-0.0221429
-0.0531752
-0.072454
-0.0771325
-0.0713252
-0.0581246
-0.0395439
-0.0172454
0.00897163
0.0397244
0.0726864
0.103685
0.128326
0.144206
0.1518
0.153086
0.148905
0.139349
0.128176
0.118397
0.110051
0.100589
0.090163
0.0802031
0.0703289
0.0572796
0.0406654
0.02486
0.0118437
-0.000130516
-0.0127686
-0.0228241
-0.0276524
-0.0290428
-0.0304386
-0.0315286
-0.0288823
-0.0226665
-0.0164486
-0.011193
-0.00425264
-0.00273728
-0.0074183
-0.0116534
-0.0171372
-0.0228454
-0.0259262
-0.0259875
-0.0259866
-0.0266288
-0.0250909
-0.0188228
-0.00947595
-0.000222192
0.0105807
0.025109
0.0418398
0.0560758
0.0677041
0.0797968
0.0926361
0.10418
0.113639
0.123681
0.135203
0.145913
0.1518
0.151976
0.145032
0.129485
0.10585
0.0767516
0.0459931
0.0166177
-0.0104592
-0.0358002
-0.0581465
-0.0744897
-0.0824974
-0.0798911
-0.063451
-0.0356525
-0.00290301
0.0259415
0.0418528
0.0449102
0.0438764
0.0467171
0.0586055
0.0758607
0.0876016
0.0876017
0.0758607
0.0586052
0.0467165
0.0438754
0.0449091
0.041852
0.0259413
-0.00290277
-0.0356521
-0.0634507
-0.0798912
-0.0824979
-0.0744904
-0.0581471
-0.0358005
-0.0104593
0.0166177
0.0459933
0.076752
0.10585
0.129485
0.145033
0.151977
0.1518
0.145914
0.135204
0.123681
0.113639
0.104181
0.0926372
0.0797981
0.0677054
0.0560766
0.04184
0.0251089
0.0105802
-0.000223092
-0.00947733
-0.0188244
-0.0250924
-0.0266299
-0.0259874
-0.0259883
-0.0259272
-0.0228464
-0.0171379
-0.0116535
-0.00741803
-0.00273711
-0.00171784
-0.0048384
-0.00810963
-0.0124716
-0.0174176
-0.0211402
-0.0227533
-0.0241585
-0.0263481
-0.027587
-0.0250901
-0.019616
-0.01395
-0.00637788
0.00578505
0.0214798
0.0358612
0.0485598
0.0626282
0.0782248
0.0923507
0.103309
0.113789
0.125687
0.137251
0.144205
0.145032
0.138101
0.122649
0.100148
0.0734006
0.0455137
0.0183679
-0.00842296
-0.0352672
-0.059788
-0.0782899
-0.0887457
-0.089649
-0.0782383
-0.0560035
-0.0274631
-3.09811e-05
0.0172579
0.0234034
0.0256969
0.0311102
0.0447777
0.0632018
0.0754509
0.075451
0.063202
0.0447778
0.0311099
0.0256962
0.0234025
0.0172572
-3.13418e-05
-0.0274632
-0.0560034
-0.0782383
-0.0896494
-0.0887464
-0.0782907
-0.0597886
-0.0352674
-0.00842283
0.0183683
0.0455142
0.0734013
0.100149
0.12265
0.138102
0.145033
0.144206
0.137251
0.125687
0.113789
0.103309
0.0923515
0.0782259
0.0626292
0.0485606
0.0358615
0.0214795
0.00578427
-0.00637884
-0.0139511
-0.0196174
-0.0250915
-0.0275881
-0.0263488
-0.024159
-0.0227538
-0.0211409
-0.0174181
-0.0124718
-0.00810946
-0.00483808
-0.00171769
-0.00140436
-0.00413944
-0.00714364
-0.0106716
-0.0150351
-0.019678
-0.0231665
-0.0260831
-0.0294686
-0.0328421
-0.0335663
-0.031777
-0.0297929
-0.0257934
-0.0166664
-0.00302727
0.010368
0.0232061
0.038573
0.0564968
0.0729637
0.0854264