/*--------------------------------*- C++ -*----------------------------------*\
  =========                 |
  \\      /  F ield         | OpenFOAM: The Open Source CFD Toolbox
   \\    /   O peration     | Website:  https://openfoam.org
    \\  /    A nd           | Version:  dev
     \\/     M anipulation  |
\*---------------------------------------------------------------------------*/
FoamFile
{
    format      ascii;
    class       volScalarField;
    location    "90";
    object      h_0;
}
// * * * * * * * * * * * * * * * * * * * * * * * * * * * * * * * * * * * * * //

dimensions      [0 1 0 0 0 0 0];

internalField   nonuniform List<scalar> 
10000
(
-0.000867879
-0.00278972
-0.00438685
-0.00480546
-0.00433599
-0.00385915
-0.00300953
-0.000755009
0.00247595
0.00565599
0.00860671
0.0113946
0.0130016
0.01261
0.0109494
0.00924597
0.00765777
0.00553177
0.00271916
-0.000351635
-0.00303659
-0.0050998
-0.00634827
-0.00656065
-0.00572771
-0.00425754
-0.00273329
-0.00170728
-0.0013933
-0.00164367
-0.00230656
-0.00298195
-0.00330623
-0.00319572
-0.00309265
-0.00303664
-0.00245972
-0.00105713
0.000892266
0.00257543
0.00275572
0.00159588
0.000559283
0.000703975
0.00230079
0.0042539
0.00456872
0.00271163
-0.000278226
-0.00267971
-0.00267968
-0.000278143
0.00271173
0.0045688
0.00425393
0.00230077
0.000703928
0.000559237
0.00159586
0.00275572
0.00257545
0.000892289
-0.00105709
-0.00245967
-0.00303658
-0.00309259
-0.00319569
-0.00330625
-0.00298201
-0.00230664
-0.00164371
-0.00139325
-0.00170712
-0.00273312
-0.00425751
-0.00572796
-0.00656119
-0.00634891
-0.00510028
-0.00303675
-0.000351469
0.00271947
0.00553199
0.00765781
0.00924595
0.0109495
0.0126106
0.0130025
0.0113954
0.00860723
0.00565603
0.00247555
-0.000755637
-0.00301013
-0.00385958
-0.00433635
-0.00480589
-0.00438733
-0.0027901
-0.000868022
-0.00278972
-0.00894627
-0.014228
-0.0160165
-0.0148995
-0.0132447
-0.0100569
-0.00267277
0.00731354
0.01675
0.0252438
0.0332904
0.0381932
0.037567
0.0332409
0.0284528
0.0235598
0.0168961
0.00843256
-0.000274804
-0.00739344
-0.012596
-0.0157687
-0.0165064
-0.0146867
-0.0111822
-0.00738679
-0.00478939
-0.00408485
-0.00499147
-0.0071403
-0.00935104
-0.010498
-0.0103274
-0.0101469
-0.0101078
-0.00856462
-0.00457817
0.00107648
0.00600057
0.00656129
0.00316106
8.40681e-06
0.000237628
0.00470776
0.0102854
0.0112115
0.00590284
-0.0026714
-0.00955651
-0.00955646
-0.00267126
0.00590301
0.0112116
0.0102855
0.00470771
0.00023757
8.38092e-06
0.00316106
0.0065613
0.00600054
0.00107642
-0.0045782
-0.00856455
-0.0101077
-0.0101468
-0.0103273
-0.010498
-0.0093511
-0.00714036
-0.00499144
-0.00408467
-0.00478907
-0.00738652
-0.0111823
-0.0146874
-0.0165077
-0.0157702
-0.0125972
-0.0073939
-0.000274521
0.00843329
0.0168968
0.0235602
0.0284532
0.0332417
0.0375687
0.0381955
0.0332926
0.0252451
0.0167501
0.00731254
-0.00267449
-0.0100587
-0.0132463
-0.0149009
-0.016018
-0.0142295
-0.00894735
-0.00279011
-0.00438685
-0.014228
-0.0231106
-0.0267228
-0.0254041
-0.0223689
-0.0161745
-0.00340599
0.0127465
0.0271245
0.0395629
0.0516318
0.0597437
0.0600792
0.054687
0.047763
0.0395711
0.0280278
0.0140024
0.000655449
-0.00922612
-0.0159019
-0.0201416
-0.0217695
-0.0203048
-0.0163878
-0.0115694
-0.00800404
-0.00702587
-0.00859231
-0.0122918
-0.0162143
-0.0184026
-0.0184159
-0.0183094
-0.0183777
-0.016057
-0.00974439
-0.000606311
0.00742083
0.00851313
0.00316368
-0.00204291
-0.00195663
0.00489401
0.0135923
0.0151016
0.00679566
-0.00672086
-0.0175586
-0.0175586
-0.00672073
0.00679578
0.0151016
0.0135923
0.00489391
-0.00195665
-0.00204281
0.00316383
0.00851321
0.0074207
-0.000606598
-0.00974465
-0.0160571
-0.0183776
-0.0183092
-0.0184158
-0.0184026
-0.0162142
-0.0122916
-0.00859201
-0.00702558
-0.00800387
-0.0115695
-0.0163884
-0.0203059
-0.021771
-0.0201432
-0.0159033
-0.00922696
0.000655333
0.014003
0.0280289
0.0395725
0.0477646
0.054689
0.0600818
0.0597465
0.0516343
0.0395645
0.0271248
0.0127454
-0.00340827
-0.0161775
-0.0223719
-0.0254069
-0.0267255
-0.0231129
-0.0142295
-0.00438733
-0.00480546
-0.0160165
-0.0267228
-0.0313362
-0.0296655
-0.0252134
-0.0162973
0.000511901
0.0205354
0.0372229
0.0511214
0.065238
0.0757508
0.0776097
0.0723129
0.0641023
0.0529472
0.0367735
0.0176359
0.000365109
-0.0115359
-0.0190985
-0.0241748
-0.0269191
-0.0263615
-0.0225981
-0.0170448
-0.0123577
-0.0105426
-0.0120292
-0.0165192
-0.0216079
-0.0246315
-0.024966
-0.0250195
-0.0249946
-0.0215617
-0.0126095
0.00014217
0.0111363
0.012794
0.0058006
-0.0011583
-0.000981684
0.00820133
0.0196853
0.0216116
0.0103709
-0.00790377
-0.0224262
-0.0224261
-0.00790352
0.0103711
0.0216117
0.0196852
0.00820112
-0.000981792
-0.00115818
0.00580089
0.0127943
0.0111363
0.00014186
-0.0126099
-0.0215619
-0.0249946
-0.0250194
-0.0249659
-0.0246313
-0.0216075
-0.0165187
-0.0120287
-0.0105424
-0.0123579
-0.0170454
-0.0225992
-0.0263627
-0.0269204
-0.0241762
-0.0191
-0.0115373
0.000364093
0.0176358
0.0367747
0.0529496
0.0641053
0.0723162
0.077613
0.0757537
0.0652403
0.0511229
0.0372236
0.0205349
0.000509821
-0.0163008
-0.0252174
-0.0296695
-0.0313398
-0.0267255
-0.016018
-0.00480589
-0.00433599
-0.0148995
-0.0254041
-0.0296655
-0.027179
-0.0215286
-0.0109882
0.00761289
0.0289296
0.045974
0.0600413
0.0750624
0.087101
0.0902376
0.0853178
0.076471
0.0635171
0.0444386
0.0218617
0.00159476
-0.0124242
-0.0215193
-0.0280148
-0.0321089
-0.032441
-0.0288319
-0.02276
-0.0173074
-0.0149109
-0.0163194
-0.0212707
-0.0271228
-0.030795
-0.0316046
-0.031894
-0.0315033
-0.0265463
-0.0146482
0.00169553
0.0152631
0.0173419
0.00903371
0.000814072
0.0015568
0.0131751
0.0271067
0.029193
0.0149621
-0.00798085
-0.0259534
-0.0259533
-0.00798043
0.0149625
0.0291933
0.0271067
0.0131748
0.00155651
0.000814027
0.00903396
0.0173423
0.0152633
0.00169536
-0.0146486
-0.0265466
-0.0315033
-0.0318939
-0.0316043
-0.0307946
-0.0271223
-0.0212701
-0.0163189
-0.0149109
-0.017308
-0.022761
-0.0288331
-0.0324423
-0.0321102
-0.0280162
-0.0215208
-0.012426
0.00159315
0.0218612
0.0444397
0.0635199
0.0764748
0.085322
0.0902415
0.087104
0.0750644
0.0600426
0.0459748
0.0289296
0.00761123
-0.0109916
-0.0215329
-0.0271835
-0.0296695
-0.0254069
-0.0149009
-0.00433635
-0.00385915
-0.0132447
-0.0223689
-0.0252134
-0.0215286
-0.0150496
-0.00415149
0.0141899
0.0351374
0.0521665
0.0667675
0.0825642
0.0953019
0.0988254
0.093866
0.0848615
0.0718609
0.0527176
0.0295254
0.00797268
-0.00791526
-0.0190973
-0.0275623
-0.0332289
-0.0345496
-0.0314707
-0.0258113
-0.0209871
-0.0195065
-0.0220881
-0.0282091
-0.0350501
-0.039365
-0.0406646
-0.0410799
-0.0401022
-0.0336323
-0.0191577
0.000142337
0.0156394
0.0181285
0.00910237
0.000181149
0.00164659
0.0152323
0.0308144
0.0327798
0.0159872
-0.0108192
-0.0315063
-0.0315062
-0.0108188
0.0159877
0.0327801
0.0308145
0.0152321
0.00164629
0.000181002
0.00910247
0.0181288
0.0156395
0.000142131
-0.0191581
-0.0336326
-0.0401021
-0.0410796
-0.0406642
-0.0393646
-0.0350497
-0.0282088
-0.022088
-0.0195067
-0.0209878
-0.0258123
-0.0314719
-0.034551
-0.0332304
-0.0275639
-0.0190989
-0.00791681
0.0079715
0.0295252
0.0527188
0.0718636
0.0848654
0.0938703
0.0988296
0.0953052
0.0825664
0.0667687
0.052167
0.0351371
0.0141883
-0.00415464
-0.0150537
-0.0215329
-0.0252174
-0.0223719
-0.0132463
-0.00385958
-0.00300953
-0.0100569
-0.0161745
-0.0162973
-0.0109882
-0.00415149
0.00571187
0.021696
0.0404896
0.0567128
0.0714176
0.0868994
0.0987019
0.101292
0.0957993
0.0871172
0.0756667
0.058998
0.0378691
0.0170235
0.000283466
-0.0125853
-0.0228471
-0.0300408
-0.0325155
-0.0304007
-0.0258682
-0.0225724
-0.0229476
-0.0275148
-0.0352556
-0.0431205
-0.0478535
-0.0493819
-0.0496187
-0.0478358
-0.0400343
-0.0235786
-0.00207267
0.0148411
0.0180023
0.00908739
4.89576e-05
0.00210213
0.0167496
0.0328784
0.0344062
0.0157693
-0.0136302
-0.0359746
-0.0359745
-0.01363
0.0157696
0.0344065
0.0328785
0.0167496
0.00210198
4.89094e-05
0.00908749
0.0180024
0.014841
-0.00207308
-0.0235791
-0.0400345
-0.0478356
-0.0496182
-0.0493813
-0.0478531
-0.0431203
-0.0352555
-0.0275148
-0.0229479
-0.0225729
-0.0258691
-0.0304019
-0.0325172
-0.0300428
-0.022849
-0.0125868
0.000282571
0.0170233
0.0378698
0.0589996
0.0756691
0.0871201
0.0958029
0.101296
0.0987056
0.086902
0.0714188
0.0567128
0.0404887
0.0216941
0.00570916
-0.00415463
-0.0109916
-0.0163008
-0.0161775
-0.0100587
-0.00301013
-0.000755009
-0.00267277
-0.00340599
0.000511901
0.00761289
0.0141899
0.021696
0.0332689
0.047544
0.0607137
0.0732292
0.0859761
0.0950219
0.0961818
0.0907797
0.0834336
0.0746397
0.0617287
0.0441014
0.0253446
0.00889425
-0.0048404
-0.0165428
-0.0254553
-0.0296644
-0.0290793
-0.0259229
-0.0240105
-0.0258724
-0.0320421
-0.0410941
-0.0497776
-0.0548657
-0.0566213
-0.056503
-0.0535518
-0.0441604
-0.0257773
-0.00236532
0.0157404
0.0198833
0.0118629
0.00339982
0.0061876
0.0213908
0.0373101
0.0381141
0.018055
-0.0131144
-0.0364305
-0.0364304
-0.0131142
0.0180552
0.0381144
0.0373102
0.0213907
0.00618746
0.0033998
0.0118631
0.0198834
0.0157403
-0.00236577
-0.0257778
-0.0441607
-0.0535515
-0.0565023
-0.0566207
-0.0548654
-0.0497775
-0.0410941
-0.0320422
-0.0258726
-0.024011
-0.0259238
-0.0290807
-0.0296663
-0.0254574
-0.0165447
-0.00484163
0.00889394
0.0253452
0.0441027
0.0617303
0.0746415
0.0834355
0.0907822
0.096185
0.0950254
0.0859789
0.0732305
0.0607135
0.0475427
0.033267
0.0216941
0.0141883
0.00761123
0.000509821
-0.00340826
-0.00267449
-0.000755632
0.00247595
0.00731354
0.0127465
0.0205354
0.0289296
0.0351374
0.0404896
0.047544
0.0563993
0.0648376
0.0729808
0.0810241
0.0865532
0.0870447
0.0831928
0.0781344
0.0721193
0.062767
0.0487493
0.0327034
0.0175464
0.00397582
-0.00855566
-0.0192732
-0.0259256
-0.0277627
-0.0266312
-0.0262542
-0.0292939
-0.03654
-0.0465203
-0.0560804
-0.0621309
-0.064902
-0.0648251
-0.0604396
-0.0488095
-0.0280447
-0.00278359
0.0161815
0.0212108
0.0144762
0.00721797
0.011135
0.0268072
0.0421087
0.041896
0.0205343
-0.0119616
-0.035857
-0.0358569
-0.0119613
0.0205347
0.0418964
0.0421089
0.0268071
0.0111347
0.00721774
0.0144762
0.021211
0.0161816
-0.00278376
-0.0280451
-0.0488098
-0.0604394
-0.0648245
-0.0649014
-0.0621305
-0.0560804
-0.0465204
-0.0365402
-0.0292943
-0.0262549
-0.0266323
-0.0277642
-0.0259274
-0.0192749
-0.00855704
0.0039751
0.0175464
0.0327042
0.0487506
0.0627686
0.0721208
0.0781358
0.0831943
0.0870467
0.0865557
0.0810263
0.072982
0.0648376
0.0563983
0.0475427
0.0404887
0.0351371
0.0289296
0.0205349
0.0127454
0.00731254
0.00247555
0.00565599
0.01675
0.0271245
0.0372229
0.045974
0.0521665
0.0567128
0.0607137
0.0648376
0.0682743
0.071234
0.0740499
0.0764704
0.0774975
0.0763778
0.0739552
0.0702945
0.0639674
0.05356
0.0408481
0.0280626
0.0158947
0.0035701
-0.00845062
-0.0177872
-0.0229383
-0.0251002
-0.027501
-0.0326683
-0.0415828
-0.0529488
-0.0639831
-0.0718628
-0.0764384
-0.0767606
-0.0708115
-0.0566314
-0.033495
-0.00680354
0.0126403
0.0185968
0.0136571
0.00818064
0.0132564
0.0288171
0.0428103
0.0413725
0.0192901
-0.0134754
-0.0371681
-0.0371681
-0.0134753
0.0192904
0.041373
0.0428107
0.0288171
0.0132561
0.00818016
0.0136569
0.0185968
0.0126406
-0.00680346
-0.0334952
-0.0566317
-0.0708115
-0.0767604
-0.076438
-0.0718624
-0.063983
-0.0529489
-0.0415832
-0.032669
-0.0275021
-0.0251017
-0.02294
-0.0177887
-0.00845164
0.00356964
0.0158948
0.028063
0.0408489
0.0535612
0.0639689
0.070296
0.0739566
0.0763788
0.0774983
0.0764712
0.0740507
0.0712346
0.0682745
0.0648376
0.0607135
0.0567128
0.052167
0.0459748
0.0372236
0.0271249
0.0167501
0.00565603
0.00860671
0.0252438
0.0395629
0.0511214
0.0600413
0.0667675
0.0714176
0.0732292
0.0729808
0.071234
0.0685702
0.0658469
0.0650196
0.0663522
0.0675111
0.0671113
0.0653947
0.0621823
0.0560311
0.0475794
0.0382474
0.028754
0.0181135
0.00626499
-0.0047206
-0.012896
-0.018851
-0.025024
-0.0334031
-0.0448073
-0.0580269
-0.0707114
-0.0804386
-0.0866253
-0.0871142
-0.0796001
-0.0632558
-0.0385865
-0.0113299
0.00840979
0.0158854
0.0136714
0.0105337
0.0163088
0.0305372
0.0421274
0.0392548
0.0174354
-0.0139655
-0.0362854
-0.0362855
-0.0139656
0.0174355
0.0392553
0.0421279
0.0305375
0.0163087
0.0105333
0.0136709
0.0158852
0.00840982
-0.0113298
-0.0385866
-0.0632559
-0.0796001
-0.087114
-0.0866249
-0.0804382
-0.0707113
-0.0580271
-0.0448079
-0.0334041
-0.0250254
-0.0188527
-0.0128976
-0.00472163
0.00626468
0.0181139
0.0287548
0.0382484
0.0475804
0.0560321
0.0621835
0.0653961
0.0671125
0.0675117
0.0663519
0.0650188
0.0658461
0.06857
0.0712346
0.072982
0.0732305
0.0714188
0.0667687
0.0600426
0.0511229
0.0395645
0.0252451
0.00860724
0.0113946
0.0332904
0.0516318
0.065238
0.0750624
0.0825642
0.0868994
0.0859761
0.0810241
0.0740499
0.0658469
0.0575016
0.0527019
0.0528566
0.0547001
0.0553791
0.0556165
0.0561797
0.0551082
0.05146
0.0458714
0.0394332
0.03131
0.0209519
0.00975571
-0.000330906
-0.00957866
-0.0196175
-0.0316655
-0.046005
-0.0612298
-0.0753133
-0.0863461
-0.0934279
-0.0936393
-0.0847148
-0.0668715
-0.0416299
-0.0145464
0.00555713
0.0152936
0.0167687
0.0166354
0.022974
0.0351423
0.043664
0.0391974
0.0181961
-0.0108845
-0.0311725
-0.0311726
-0.0108848
0.018196
0.0391977
0.0436645
0.0351428
0.0229741
0.0166351
0.0167683
0.0152934
0.00555703
-0.0145465
-0.04163
-0.0668716
-0.0847147
-0.0936389
-0.0934274
-0.0863458
-0.0753134
-0.0612303
-0.0460059
-0.0316667
-0.0196188
-0.00958004
-0.000332047
0.00975512
0.020952
0.0313108
0.0394344
0.0458727
0.0514612
0.0551092
0.0561806
0.0556171
0.0553795
0.0546998
0.0528554
0.0526998
0.0574997
0.0658461
0.0740507
0.0810263
0.0859789
0.086902
0.0825664
0.0750644
0.0652403
0.0516343
0.0332926
0.0113954
0.0130016
0.0381932
0.0597437
0.0757508
0.087101
0.0953019
0.0987019
0.0950219
0.0865532
0.0764704
0.0650196
0.0527019
0.0441991
0.0420637
0.0430611
0.0438214
0.0456712
0.0498388
0.0534918
0.0539922
0.0514021
0.0474812
0.0418167
0.0334184
0.0227934
0.0115804
-0.00038997
-0.0140107
-0.0297305
-0.047186
-0.0646829
-0.0804552
-0.0930356
-0.101021
-0.100883
-0.0905731
-0.0713583
-0.0458774
-0.0193645
0.00104405
0.013331
0.0190658
0.0226686
0.030081
0.0403826
0.0458504
0.039676
0.0194321
-0.00727142
-0.0255027
-0.0255028
-0.00727168
0.019432
0.0396763
0.0458509
0.040383
0.0300811
0.0226683
0.0190655
0.0133308
0.00104402
-0.0193645
-0.0458775
-0.0713584
-0.0905731
-0.100883
-0.10102
-0.0930354
-0.0804556
-0.0646838
-0.0471872
-0.0297317
-0.0140119
-0.000390873
0.0115798
0.0227933
0.0334188
0.0418176
0.0474825
0.0514036
0.0539937
0.0534929
0.0498392
0.0456709
0.0438206
0.0430598
0.0420618
0.0441968
0.0526998
0.0650188
0.0764712
0.0865557
0.0950254
0.0987056
0.0953052
0.087104
0.0757537
0.0597465
0.0381955
0.0130025
0.01261
0.037567
0.0600792
0.0776097
0.0902376
0.0988254
0.101292
0.0961818
0.0870447
0.0774975
0.0663522
0.0528566
0.0420637
0.0375726
0.0368677
0.0367352
0.0391115
0.0454973
0.0524113
0.0559291
0.0557876
0.054346
0.0515027
0.0456818
0.0363257
0.0246014
0.0104072
-0.0064488
-0.0257408
-0.0465883
-0.0671177
-0.0857651
-0.101169
-0.110922
-0.110803
-0.0991502
-0.0784932
-0.0529033
-0.0273337
-0.00688342
0.00791131
0.0181077
0.0258082
0.0345007
0.0429094
0.0452435
0.0373317
0.0180273
-0.00593967
-0.0218667
-0.0218669
-0.00594012
0.0180271
0.0373319
0.0452441
0.04291
0.0345008
0.0258078
0.0181071
0.00791087
-0.00688349
-0.0273335
-0.0529031
-0.0784932
-0.0991503
-0.110803
-0.110921
-0.101169
-0.0857657
-0.0671188
-0.0465897
-0.0257422
-0.00644976
0.0104067
0.0246014
0.0363261
0.0456826
0.0515038
0.0543473
0.0557891
0.0559306
0.0524123
0.0454973
0.0391105
0.0367334
0.0368656
0.0375704
0.0420618
0.0528554
0.0663519
0.0774983
0.0870467
0.096185
0.101296
0.0988296
0.0902415
0.077613
0.0600818
0.0375687
0.0126106
0.0109494
0.0332409
0.054687
0.0723129
0.0853178
0.093866
0.0957993
0.0907797
0.0831928
0.0763778
0.0675111
0.0547001
0.0430611
0.0368677
0.0343543
0.0326826
0.0343482
0.0412592
0.0499547
0.0558498
0.0584332
0.0602471
0.0611672
0.0588758
0.0517469
0.0404363
0.024947
0.00571382
-0.0166187
-0.04093
-0.0652678
-0.0880177
-0.107381
-0.119461
-0.119468
-0.106541
-0.0847205
-0.059498
-0.0352707
-0.0147472
0.00285688
0.0177253
0.02938
0.0387347
0.0444514
0.0432419
0.033874
0.016458
-0.00358911
-0.0164407
-0.0164409
-0.0035897
0.0164576
0.0338742
0.0432426
0.0444522
0.0387351
0.0293796
0.0177243
0.00285602
-0.0147475
-0.0352704
-0.0594975
-0.0847201
-0.106541
-0.119468
-0.119462
-0.107381
-0.0880184
-0.065269
-0.0409314
-0.01662
0.00571304
0.0249468
0.0404368
0.051748
0.0588772
0.0611687
0.0602485
0.0584345
0.0558509
0.0499552
0.0412587
0.0343466
0.0326802
0.0343517
0.0368656
0.0430598
0.0546998
0.0675117
0.0763788
0.0831943
0.0907822
0.0958029
0.0938703
0.085322
0.0723162
0.054689
0.0332417
0.0109495
0.00924597
0.0284528
0.047763
0.0641023
0.076471
0.0848615
0.0871172
0.0834336
0.0781344
0.0739552
0.0671113
0.0553791
0.0438214
0.0367352
0.0326826
0.0291605
0.0291789
0.0352874
0.0446782
0.0525768
0.0581282
0.063614
0.0687545
0.0706309
0.0667004
0.0570324
0.0416425
0.0213653
-0.00302304
-0.0303431
-0.0585383
-0.0856384
-0.109049
-0.123344
-0.123534
-0.109842
-0.0876407
-0.0633642
-0.0405325
-0.0194822
0.00138586
0.0209048
0.0359635
0.0452015
0.0476999
0.0430259
0.03281
0.0181939
0.00297193
-0.00626749
-0.0062677
0.00297148
0.0181936
0.0328102
0.0430266
0.0477007
0.0452019
0.0359632
0.0209039
0.00138486
-0.0194827
-0.0405323
-0.0633636
-0.0876401
-0.109841
-0.123534
-0.123344
-0.10905
-0.0856393
-0.0585394
-0.0303443
-0.00302391
0.0213649
0.0416427
0.0570332
0.0667018
0.0706326
0.0687562
0.0636154
0.058129
0.052577
0.0446778
0.0352863
0.029177
0.0291581
0.0326802
0.0367334
0.0438206
0.0553795
0.0671125
0.0739566
0.0781358
0.0834355
0.0871201
0.0848654
0.0764748
0.0641053
0.0477646
0.0284532
0.00924594
0.00765777
0.0235598
0.0395711
0.0529472
0.0635171
0.0718609
0.0756667
0.0746397
0.0721193
0.0702945
0.0653947
0.0556165
0.0456712
0.0391115
0.0343482
0.0291789
0.0271028
0.0314204
0.0403144
0.0490848
0.0564686
0.0643527
0.0725594
0.0779845
0.0773774
0.0700526
0.055836
0.0356985
0.0103191
-0.0191929
-0.0506671
-0.081632
-0.108652
-0.125018
-0.125828
-0.112308
-0.090651
-0.0676465
-0.0458667
-0.023686
0.000739072
0.0247251
0.0428731
0.0519771
0.0517064
0.0443214
0.0338861
0.0223298
0.0118592
0.0060436
0.00604346
0.0118589
0.0223296
0.0338862
0.0443219
0.0517069
0.0519773
0.0428728
0.0247244
0.000738251
-0.0236865
-0.0458666
-0.067646
-0.0906505
-0.112308
-0.125829
-0.125019
-0.108653
-0.081633
-0.0506682
-0.0191938
0.0103188
0.0356987
0.0558368
0.0700537
0.0773789
0.0779861
0.0725608
0.0643536
0.0564688
0.0490843
0.0403132
0.0314187
0.0271008
0.029177
0.0343466
0.0391105
0.0456709
0.0556171
0.0653961
0.070296
0.0721208
0.0746415
0.0756691
0.0718636
0.0635199
0.0529496
0.0395725
0.0235602
0.0076578
0.00553177
0.0168961
0.0280278
0.0367735
0.0444386
0.0527176
0.058998
0.0617287
0.062767
0.0639674
0.0621823
0.0561797
0.0498388
0.0454973
0.0412592
0.0352874
0.0314204
0.0335282
0.0408321
0.0489333
0.0563475
0.0647587
0.0744455
0.0824168
0.0847809
0.0799377
0.0674661
0.0483925
0.0231402
-0.00747591
-0.0413877
-0.0757072
-0.106229
-0.125137
-0.127611
-0.115582
-0.0956071
-0.0744618
-0.0538149
-0.0303825
-0.0023332
0.0261511
0.0475853
0.0570052
0.0545534
0.0449236
0.0343367
0.0255558
0.0194334
0.0167306
0.0167304
0.0194329
0.0255554
0.0343366
0.044924
0.0545539
0.0570055
0.0475852
0.0261505
-0.00233389
-0.0303829
-0.0538148
-0.0744614
-0.0956069
-0.115582
-0.127612
-0.125138
-0.10623
-0.0757081
-0.0413886
-0.00747639
0.0231403
0.0483933
0.0674673
0.0799391
0.0847822
0.0824179
0.0744463
0.064759
0.0563472
0.0489324
0.0408306
0.0335264
0.0314187
0.0352863
0.0412587
0.0454973
0.0498392
0.0561806
0.0621835
0.0639689
0.0627686
0.0617304
0.0589996
0.0527188
0.0444397
0.0367747
0.0280289
0.0168968
0.00553198
0.00271916
0.00843256
0.0140024
0.0176359
0.0218617
0.0295254
0.0378691
0.0441014
0.0487493
0.05356
0.0560311
0.0551082
0.0534918
0.0524113
0.0499547
0.0446782
0.0403144
0.0408321
0.0463506
0.0530585
0.0595942
0.0676185
0.0779228
0.0876999
0.0924983
0.0899521
0.0796064
0.0624988
0.038527
0.00784889
-0.0278111
-0.0651393
-0.0990657
-0.120839
-0.125836
-0.116632
-0.0998527
-0.0818002
-0.0629444
-0.038406
-0.00658598
0.0266523
0.0516462
0.0616234
0.0571932
0.0454066
0.0345061
0.028166
0.0260405
0.0261918
0.0261915
0.0260399
0.0281653
0.0345058
0.0454067
0.0571937
0.0616238
0.0516462
0.0266519
-0.0065867
-0.0384065
-0.0629444
-0.0817999
-0.0998526
-0.116632
-0.125837
-0.12084
-0.0990667
-0.06514
-0.0278114
0.00784895
0.0385276
0.0624998
0.0796078
0.0899534
0.0924994
0.0877005
0.0779229
0.0676182
0.0595936
0.0530575
0.0463493
0.0408306
0.0403132
0.0446778
0.0499552
0.0524123
0.0534929
0.0551092
0.0560321
0.0535612
0.0487506
0.0441027
0.0378698
0.0295252
0.0218612
0.0176358
0.014003
0.00843329
0.00271946
-0.000351635
-0.000274804
0.000655449
0.000365109
0.00159476
0.00797268
0.0170235
0.0253446
0.0327034
0.0408481
0.0475794
0.05146
0.0539922
0.0559291
0.0558498
0.0525768
0.0490848
0.0489333
0.0530585
0.0586132
0.0645856
0.0724878
0.0833193
0.0943884
0.100987
0.100419
0.0924772
0.0781154
0.0564517
0.0267136
-0.00977167
-0.0491704
-0.0855429
-0.109612
-0.117281
-0.111755
-0.0993461
-0.0853064
-0.0686249
-0.0431072
-0.00778607
0.0297274
0.0578878
0.068456
0.0625702
0.0492989
0.0384193
0.034346
0.0357017
0.0382335
0.0382334
0.0357013
0.0343454
0.0384189
0.0492988
0.0625705
0.0684565
0.0578881
0.0297271
-0.00778674
-0.0431078
-0.0686252
-0.0853063
-0.0993461
-0.111756
-0.117282
-0.109613
-0.0855438
-0.0491708
-0.00977146
0.0267142
0.0564525
0.0781165
0.0924783
0.10042
0.100988
0.0943887
0.0833191
0.0724872
0.0645847
0.0586123
0.0530575
0.0489324
0.0490843
0.052577
0.0558509
0.0559306
0.0539937
0.0514612
0.0475804
0.0408489
0.0327042
0.0253452
0.0170233
0.0079715
0.00159315
0.000364089
0.000655328
-0.000274526
-0.000351475
-0.00303659
-0.00739344
-0.00922612
-0.0115359
-0.0124242
-0.00791526
0.000283466
0.00889425
0.0175464
0.0280626
0.0382474
0.0458714
0.0514021
0.0557876
0.0584332
0.0581282
0.0564686
0.0563475
0.0595942
0.0645856
0.0706203
0.0787455
0.0898676
0.101508
0.109101
0.10991
0.104041
0.0922488
0.0729035
0.0444571
0.00803971
-0.0320123
-0.0691923
-0.0944032
-0.104445
-0.102902
-0.0951933
-0.0851321
-0.0704346
-0.0442914
-0.00667906
0.0335064
0.063692
0.0748279
0.068579
0.0553378
0.0455547
0.0440231
0.0485638
0.0531151
0.0531151
0.0485637
0.0440229
0.0455545
0.0553376
0.0685791
0.0748281
0.0636921
0.0335062
-0.00667968
-0.0442922
-0.0704352
-0.0851324
-0.0951934
-0.102903
-0.104446
-0.0944039
-0.0691928
-0.0320123
0.00804019
0.0444579
0.0729045
0.0922497
0.104042
0.10991
0.109101
0.101508
0.0898673
0.0787448
0.0706195
0.0645847
0.0595936
0.0563472
0.0564688
0.058129
0.0584345
0.0557891
0.0514036
0.0458727
0.0382484
0.028063
0.0175464
0.00889393
0.000282572
-0.00791681
-0.012426
-0.0115373
-0.00922697
-0.00739391
-0.00303675
-0.0050998
-0.012596
-0.0159019
-0.0190985
-0.0215193
-0.0190973
-0.0125853
-0.0048404
0.00397582
0.0158947
0.028754
0.0394332
0.0474812
0.054346
0.0602471
0.063614
0.0643527
0.0647587
0.0676185
0.0724878
0.0787455
0.086834
0.0976302
0.109082
0.116922
0.118307
0.113549
0.103245
0.0853774
0.0580023
0.0222557
-0.0171958
-0.0537093
-0.0790238
-0.0909809
-0.0931629
-0.0897719
-0.0832401
-0.0704778
-0.0446179
-0.00649935
0.0344116
0.065344
0.0769376
0.0712389
0.0593894
0.0519689
0.0538628
0.0620509
0.06879
0.0687901
0.062051
0.0538629
0.0519689
0.0593893
0.0712389
0.0769376
0.0653439
0.0344112
-0.00650006
-0.0446188
-0.0704786
-0.0832405
-0.089772
-0.0931629
-0.0909811
-0.0790241
-0.0537094
-0.0171956
0.0222561
0.058003
0.0853781
0.103245
0.113549
0.118307
0.116922
0.109082
0.0976299
0.0868335
0.0787448
0.0724872
0.0676182
0.064759
0.0643536
0.0636154
0.0602485
0.0543473
0.0474825
0.0394344
0.0287548
0.0158948
0.00397509
-0.00484163
-0.0125868
-0.0190989
-0.0215208
-0.0191
-0.0159033
-0.0125972
-0.00510028
-0.00634827
-0.0157687
-0.0201416
-0.0241748
-0.0280148
-0.0275623
-0.0228471
-0.0165428
-0.00855566
0.0035701
0.0181135
0.03131
0.0418167
0.0515027
0.0611672
0.0687545
0.0725594
0.0744455
0.0779228
0.0833193
0.0898676
0.0976302
0.107816
0.118876
0.126717
0.128169
0.123683
0.113815
0.0964942
0.0697128
0.0347829
-0.00345391
-0.0385719
-0.0635707
-0.0773131
-0.0830651
-0.0837588
-0.0806407
-0.0701926
-0.0457493
-0.00874686
0.0313384
0.0620029
0.0738392
0.069121
0.0594011
0.0551228
0.0610631
0.0732851
0.0824084
0.0824085
0.0732853
0.0610632
0.0551227
0.0594009
0.0691208
0.073839
0.0620026
0.0313379
-0.00874758
-0.0457501
-0.0701933
-0.080641
-0.0837588
-0.083065
-0.077313
-0.0635707
-0.038572
-0.00345375
0.0347833
0.0697132
0.0964946
0.113815
0.123684
0.128169
0.126717
0.118876
0.107816
0.0976299
0.0898673
0.0833191
0.0779229
0.0744463
0.0725608
0.0687562
0.0611687
0.0515039
0.0418176
0.0313108
0.0181139
0.00356964
-0.00855704
-0.0165447
-0.022849
-0.0275639
-0.0280162
-0.0241763
-0.0201432
-0.0157702
-0.00634891
-0.00656065
-0.0165064
-0.0217695
-0.0269191
-0.0321089
-0.0332289
-0.0300408
-0.0254553
-0.0192732
-0.00845062
0.00626499
0.0209519
0.0334184
0.0456818
0.0588758
0.0706309
0.0779845
0.0824168
0.0876999
0.0943884
0.101508
0.109082
0.118876
0.129762
0.13777
0.139423
0.135307
0.125825
0.108853
0.082543
0.048529
0.0117412
-0.0218412
-0.0466827
-0.0625497
-0.0721241
-0.077024
-0.0773478
-0.0693377
-0.0467794
-0.0116602
0.0267808
0.056632
0.0687197
0.0653944
0.0581658
0.0569593
0.0663096
0.0816731
0.0925811
0.0925813
0.0816734
0.0663097
0.056959
0.0581651
0.0653937
0.0687191
0.0566318
0.0267806
-0.0116606
-0.0467799
-0.0693381
-0.077348
-0.077024
-0.0721239
-0.0625496
-0.0466827
-0.0218413
0.0117413
0.0485292
0.0825433
0.108853
0.125826
0.135307
0.139423
0.13777
0.129762
0.118876
0.109082
0.101508
0.0943887
0.0877005
0.0824179
0.0779861
0.0706326
0.0588772
0.0456826
0.0334188
0.020952
0.00626468
-0.00845164
-0.0192749
-0.0254574
-0.0300428
-0.0332304
-0.0321102
-0.0269204
-0.021771
-0.0165077
-0.00656119
-0.00572771
-0.0146867
-0.0203048
-0.0263615
-0.032441
-0.0345496
-0.0325155
-0.0296644
-0.0259256
-0.0177872
-0.0047206
0.00975571
0.0227934
0.0363257
0.0517469
0.0667004
0.0773774
0.0847809
0.0924983
0.100987
0.109101
0.116922
0.126717
0.13777
0.146416
0.149037
0.146098
0.137488
0.121031
0.0953996
0.0626582
0.0276277
-0.00450211
-0.0298205
-0.0487089
-0.0627857
-0.0720574
-0.075433
-0.0692807
-0.0483338
-0.0151906
0.0214266
0.0505675
0.0634237
0.0620114
0.0571819
0.0580844
0.0691782
0.0859095
0.0974849
0.097485
0.0859097
0.0691781
0.0580838
0.0571808
0.0620103
0.0634229
0.0505672
0.0214268
-0.0151903
-0.0483337
-0.0692809
-0.0754332
-0.0720575
-0.0627857
-0.0487089
-0.0298207
-0.00450235
0.0276276
0.0626582
0.0953999
0.121031
0.137488
0.146099
0.149037
0.146417
0.13777
0.126717
0.116922
0.109101
0.100988
0.0924994
0.0847822
0.0773789
0.0667018
0.051748
0.0363261
0.0227933
0.00975512
-0.00472163
-0.0177887
-0.0259274
-0.0296663
-0.0325172
-0.034551
-0.0324423
-0.0263627
-0.0203059
-0.0146874
-0.00572797
-0.00425754
-0.0111822
-0.0163878
-0.0225981
-0.0288319
-0.0314707
-0.0304007
-0.0290793
-0.0277627
-0.0229383
-0.012896
-0.000330906
0.0115804
0.0246014
0.0404363
0.0570324
0.0700526
0.0799377
0.0899521
0.100419
0.10991
0.118307
0.128169
0.139423
0.149037
0.153277
0.152056
0.144524
0.128663
0.103988
0.072931
0.0399074
0.00905316
-0.0172775
-0.0396769
-0.0583269
-0.0715354
-0.0772947
-0.0725513
-0.0532156
-0.0221711
0.0128119
0.0418623
0.0562078
0.0569986
0.054099
0.0560184
0.0675026
0.0844191
0.0959978
0.0959978
0.084419
0.0675023
0.0560176
0.0540979
0.0569974
0.056207
0.041862
0.0128123
-0.0221705
-0.0532152
-0.0725513
-0.077295
-0.0715358
-0.0583272
-0.0396772
-0.0172777
0.00905296
0.0399073
0.0729311
0.103988
0.128663
0.144525
0.152057
0.153277
0.149037
0.139423
0.128169
0.118307
0.10991
0.10042
0.0899534
0.0799391
0.0700537
0.0570332
0.0404368
0.0246014
0.0115798
-0.00033205
-0.0128976
-0.02294
-0.0277642
-0.0290807
-0.0304019
-0.0314719
-0.0288331
-0.0225992
-0.0163884
-0.0111823
-0.00425751
-0.00273329
-0.00738679
-0.0115694
-0.0170448
-0.02276
-0.0258113
-0.0258682
-0.0259229
-0.0266312
-0.0251002
-0.018851
-0.00957866
-0.00038997
0.0104072
0.024947
0.0416425
0.055836
0.0674661
0.0796064
0.0924772
0.104041
0.113549
0.123683
0.135307
0.146098
0.152056
0.152303
0.145421
0.129895
0.106239
0.0770977
0.0462792
0.0167851
-0.010427
-0.0358807
-0.0582929
-0.0746304
-0.082589
-0.0799405
-0.0634739
-0.0356873
-0.00298111
0.0258488
0.0418294
0.0450502
0.0442093
0.0471597
0.0590029
0.0761031
0.0877122
0.0877122
0.0761031
0.0590026
0.047159
0.0442082
0.0450491
0.0418287
0.0258485
-0.00298088
-0.0356868
-0.0634736
-0.0799405
-0.0825895
-0.0746311
-0.0582935
-0.035881
-0.0104271
0.0167851
0.0462793
0.0770981
0.10624
0.129896
0.145422
0.152303
0.152057
0.146099
0.135307
0.123684
0.113549
0.104042
0.0924783
0.0796078
0.0674673
0.0558368
0.0416427
0.0249468
0.0104067
-0.000390876
-0.00958005
-0.0188527
-0.0251017
-0.0266323
-0.0259238
-0.0258691
-0.0258123
-0.022761
-0.0170454
-0.0115695
-0.00738652
-0.00273312
-0.00170728
-0.00478939
-0.00800404
-0.0123577
-0.0173074
-0.0209871
-0.0225724
-0.0240105
-0.0262542
-0.027501
-0.025024
-0.0196175
-0.0140107
-0.0064488
0.00571382
0.0213653
0.0356985
0.0483925
0.0624988
0.0781154
0.0922488
0.103245
0.113815
0.125825
0.137488
0.144524
0.145421
0.138551
0.12313
0.100628
0.0738604
0.0459221
0.0186527
-0.00827941
-0.0352342
-0.0598111
-0.0782993
-0.088722
-0.089629
-0.0782438
-0.0560582
-0.0275685
-0.000133246
0.0172405
0.0235534
0.0260441
0.0315795
0.0452342
0.0635468
0.0756912
0.0756913
0.063547
0.0452342
0.0315791
0.0260434
0.0235526
0.0172398
-0.000133606
-0.0275686
-0.056058
-0.0782439
-0.0896294
-0.0887227
-0.0783001
-0.0598117
-0.0352345
-0.00827928
0.0186531
0.0459226
0.073861
0.100629
0.123131
0.138552
0.145422
0.144525
0.137488
0.125826
0.113815
0.103245
0.0922497
0.0781165
0.0624998
0.0483933
0.0356987
0.0213649
0.00571303
-0.00644976
-0.0140119
-0.0196188
-0.0250254
-0.0275021
-0.0262549
-0.024011
-0.0225729
-0.0209878
-0.017308
-0.0123579
-0.00800387
-0.00478907
-0.00170712
-0.0013933
-0.00408485
-0.00702587
-0.0105426
-0.0149109
-0.0195065
-0.0229476
-0.0258724
-0.0292939
-0.0326683
-0.0334031
-0.0316655
-0.0297305
-0.0257408
-0.0166187
-0.00302304
0.0103191
0.0231402
0.038527